
Scratch directory: /tmp/

  //>>>>>>>>>>>>>>>>>>>>>>>>>>>>>>>>>>>>>//
  // ManyBody Setup: N-Body Levels [1, 2]//
  //<<<<<<<<<<<<<<<<<<<<<<<<<<<<<<<<<<<<<//

        Number of 1-body computations:     2
        Number of 2-body computations:     1

    -----------------------------------------------------------------------
          Psi4: An Open-Source Ab Initio Electronic Structure Package
                               Psi4 1.6.1 release

                         Git: Rev {HEAD} 5b9f6e3 


    D. G. A. Smith, L. A. Burns, A. C. Simmonett, R. M. Parrish,
    M. C. Schieber, R. Galvelis, P. Kraus, H. Kruse, R. Di Remigio,
    A. Alenaizan, A. M. James, S. Lehtola, J. P. Misiewicz, M. Scheurer,
    R. A. Shaw, J. B. Schriber, Y. Xie, Z. L. Glick, D. A. Sirianni,
    J. S. O'Brien, J. M. Waldrop, A. Kumar, E. G. Hohenstein,
    B. P. Pritchard, B. R. Brooks, H. F. Schaefer III, A. Yu. Sokolov,
    K. Patkowski, A. E. DePrince III, U. Bozkaya, R. A. King,
    F. A. Evangelista, J. M. Turney, T. D. Crawford, C. D. Sherrill,
    J. Chem. Phys. 152(18) 184108 (2020). https://doi.org/10.1063/5.0006002

                            Additional Code Authors
    E. T. Seidl, C. L. Janssen, E. F. Valeev, M. L. Leininger,
    J. F. Gonthier, R. M. Richard, H. R. McAlexander, M. Saitow, X. Wang,
    P. Verma, M. H. Lechner, and A. Jiang

             Previous Authors, Complete List of Code Contributors,
                       and Citations for Specific Modules
    https://github.com/psi4/psi4/blob/master/codemeta.json
    https://github.com/psi4/psi4/graphs/contributors
    http://psicode.org/psi4manual/master/introduction.html#citing-psifour

    -----------------------------------------------------------------------


    Psi4 started on: Tuesday, 27 September 2022 09:28PM

    Process ID: 68284
    Host:       Liyangs-MBP
    PSIDATADIR: /opt/miniconda3/envs/qm-tools/share/psi4
    Memory:     476.8 MiB
    Threads:    1
    
  ==> Input QCSchema <==

--------------------------------------------------------------------------
{'driver': 'energy',
 'extras': {'psiapi': True, 'wfn_qcvars_only': True},
 'id': None,
 'keywords': {'function_kwargs': {}},
 'model': {'basis': 'aug-cc-pvdz', 'method': 'scf'},
 'molecule': {'atom_labels': ['1', '2', '3', '5', '6', '7'],
              'atomic_numbers': [8, 1, 1, 8, 1, 1],
              'fix_com': True,
              'fix_orientation': True,
              'fragment_charges': [0.0, 0.0],
              'fragment_multiplicities': [1, 1],
              'fragments': [[0, 1, 2], [3, 4, 5]],
              'geometry': [4.3150013943022856e-17, -0.05118338925575475, -3.399508961950016, 4.3150013943022856e-17,
                           -0.05118338925575475, -1.5097828364921886, 4.3150013943022856e-17, 1.7781852282291912,
                           -3.8732971958679467, 4.3150013943022856e-17, -0.05118338925575475, 3.214532477152382,
                           0.8182754154208083, -1.4684779833491273, 4.159395539881295, -0.8182754154208096,
                           1.3661112048376158, 4.159395539881296],
              'mass_numbers': [16, 1, 1, 16, 1, 1],
              'masses': [15.99491461957, 1.00782503223, 1.00782503223, 15.99491461957, 1.00782503223, 1.00782503223],
              'molecular_charge': 0.0,
              'molecular_multiplicity': 1,
              'name': 'H4O2',
              'provenance': {'creator': 'QCElemental',
                             'routine': 'qcelemental.molparse.from_string',
                             'version': 'v0.25.0'},
              'real': [False, False, False, True, True, True],
              'schema_name': 'qcschema_molecule',
              'schema_version': 2,
              'symbols': ['O', 'H', 'H', 'O', 'H', 'H'],
              'validated': True},
 'protocols': {'stdout': True},
 'provenance': {'creator': 'QCElemental', 'routine': 'qcelemental.models.results', 'version': 'v0.25.0'},
 'schema_name': 'qcschema_input',
 'schema_version': 1}
--------------------------------------------------------------------------

Scratch directory: /tmp/

*** tstart() called on Liyangs-MBP
*** at Tue Sep 27 21:43:51 2022

   => Loading Basis Set <=

    Name: AUG-CC-PVDZ
    Role: ORBITAL
    Keyword: BASIS
    atoms 1, 4     entry O          line   254 file /opt/miniconda3/envs/qm-tools/share/psi4/basis/aug-cc-pvdz.gbs 
    atoms 2-3, 5-6 entry H          line    40 file /opt/miniconda3/envs/qm-tools/share/psi4/basis/aug-cc-pvdz.gbs 


         ---------------------------------------------------------
                                   SCF
               by Justin Turney, Rob Parrish, Andy Simmonett
                          and Daniel G. A. Smith
                              RHF Reference
                        1 Threads,    476 MiB Core
         ---------------------------------------------------------

  ==> Geometry <==

    Molecular point group: c1
    Full point group: C1

    Geometry (in Bohr), charge = 0, multiplicity = 1:

       Center              X                  Y                   Z               Mass       
    ------------   -----------------  -----------------  -----------------  -----------------
      Gh(O)           0.000000000000    -0.051183389256    -3.399508961950    15.994914619570
      Gh(H)           0.000000000000    -0.051183389256    -1.509782836492     1.007825032230
      Gh(H)           0.000000000000     1.778185228229    -3.873297195868     1.007825032230
         O            0.000000000000    -0.051183389256     3.214532477152    15.994914619570
         H            0.818275415421    -1.468477983349     4.159395539881     1.007825032230
         H           -0.818275415421     1.366111204838     4.159395539881     1.007825032230

  Running in c1 symmetry.

  Rotational constants: A =      7.04264  B =      0.14935  C =      0.14663 [cm^-1]
  Rotational constants: A = 211133.02440  B =   4477.43080  C =   4395.77891 [MHz]
  Nuclear repulsion =    8.772355975749342

  Charge       = 0
  Multiplicity = 1
  Electrons    = 10
  Nalpha       = 5
  Nbeta        = 5

  ==> Algorithm <==

  SCF Algorithm Type is DF.
  DIIS enabled.
  MOM disabled.
  Fractional occupation disabled.
  Guess Type is SAD.
  Energy threshold   = 1.00e-06
  Density threshold  = 1.00e-06
  Integral threshold = 1.00e-12

  ==> Primary Basis <==

  Basis Set: AUG-CC-PVDZ
    Blend: AUG-CC-PVDZ
    Number of shells: 38
    Number of basis functions: 82
    Number of Cartesian functions: 86
    Spherical Harmonics?: true
    Max angular momentum: 2

   => Loading Basis Set <=

    Name: (AUG-CC-PVDZ AUX)
    Role: JKFIT
    Keyword: DF_BASIS_SCF
    atoms 1, 4     entry O          line   270 file /opt/miniconda3/envs/qm-tools/share/psi4/basis/aug-cc-pvdz-jkfit.gbs 
    atoms 2-3, 5-6 entry H          line    70 file /opt/miniconda3/envs/qm-tools/share/psi4/basis/aug-cc-pvdz-jkfit.gbs 

  ==> Integral Setup <==

  DFHelper Memory: AOs need 0.017 GiB; user supplied 0.349 GiB. Using in-core AOs.

  ==> MemDFJK: Density-Fitted J/K Matrices <==

    J tasked:                   Yes
    K tasked:                   Yes
    wK tasked:                   No
    OpenMP threads:               1
    Memory [MiB]:               357
    Algorithm:                 Core
    Schwarz Cutoff:           1E-12
    Mask sparsity (%):       0.2677
    Fitting Condition:        1E-10

   => Auxiliary Basis Set <=

  Basis Set: (AUG-CC-PVDZ AUX)
    Blend: AUG-CC-PVDZ-JKFIT
    Number of shells: 104
    Number of basis functions: 300
    Number of Cartesian functions: 342
    Spherical Harmonics?: true
    Max angular momentum: 3

  Minimum eigenvalue in the overlap matrix is 2.2884450638E-03.
  Reciprocal condition number of the overlap matrix is 3.3952100185E-04.
    Using symmetric orthogonalization.

  ==> Pre-Iterations <==

  SCF Guess: Superposition of Atomic Densities via on-the-fly atomic UHF (no occupation information).

   -------------------------
    Irrep   Nso     Nmo    
   -------------------------
     A         82      82 
   -------------------------
    Total      82      82
   -------------------------

  ==> Iterations <==

                           Total Energy        Delta E     RMS |[F,P]|

   @DF-RHF iter SAD:   -75.40236296982346   -7.54024e+01   0.00000e+00 
   @DF-RHF iter   1:   -75.94506786760282   -5.42705e-01   5.50676e-03 ADIIS/DIIS
   @DF-RHF iter   2:   -75.99623863567788   -5.11708e-02   3.72776e-03 ADIIS/DIIS
   @DF-RHF iter   3:   -76.02931831635671   -3.30797e-02   2.79226e-04 ADIIS/DIIS
   @DF-RHF iter   4:   -76.02978936207737   -4.71046e-04   6.67323e-05 DIIS
   @DF-RHF iter   5:   -76.02982194185270   -3.25798e-05   1.62899e-05 DIIS
   @DF-RHF iter   6:   -76.02982501378568   -3.07193e-06   3.49309e-06 DIIS
   @DF-RHF iter   7:   -76.02982516829164   -1.54506e-07   6.40354e-07 DIIS
  Energy and wave function converged.


  ==> Post-Iterations <==

    Orbital Energies [Eh]
    ---------------------

    Doubly Occupied:                                                      

       1A    -20.575753     2A     -1.325869     3A     -0.721221  
       4A     -0.548268     5A     -0.500751  

    Virtual:                                                              

       6A      0.032806     7A      0.051911     8A      0.055819  
       9A      0.083045    10A      0.158295    11A      0.168235  
      12A      0.180853    13A      0.197694    14A      0.213164  
      15A      0.220802    16A      0.236856    17A      0.250782  
      18A      0.303728    19A      0.328460    20A      0.372871  
      21A      0.401452    22A      0.433113    23A      0.449837  
      24A      0.452226    25A      0.474987    26A      0.506445  
      27A      0.521586    28A      0.544880    29A      0.564014  
      30A      0.603740    31A      0.635138    32A      0.656220  
      33A      0.697902    34A      0.859426    35A      0.876661  
      36A      0.911043    37A      0.925206    38A      1.095334  
      39A      1.128276    40A      1.146339    41A      1.192178  
      42A      1.222695    43A      1.280005    44A      1.331446  
      45A      1.357377    46A      1.381486    47A      1.413970  
      48A      1.443055    49A      1.508108    50A      1.552405  
      51A      1.825867    52A      1.972467    53A      2.027657  
      54A      2.044339    55A      2.055176    56A      2.288758  
      57A      2.366595    58A      2.407096    59A      2.434525  
      60A      2.456730    61A      2.525495    62A      2.548006  
      63A      2.686363    64A      2.774016    65A      2.891379  
      66A      3.404297    67A      3.669698    68A      3.700805  
      69A      3.769408    70A      3.904714    71A      4.066714  
      72A      4.140157    73A      4.177026    74A      4.906329  
      75A      4.951679    76A      4.984505    77A      5.155365  
      78A      5.467175    79A      5.624432    80A      6.377179  
      81A      6.829945    82A     33.563540  

    Final Occupation by Irrep:
              A 
    DOCC [     5 ]

  @DF-RHF Final Energy:   -76.02982516829164

   => Energetics <=

    Nuclear Repulsion Energy =              8.7723559757493419
    One-Electron Energy =                -122.2606007571661451
    Two-Electron Energy =                  37.4584196131251588
    Total Energy =                        -76.0298251682916373

Computation Completed


Properties will be evaluated at   0.000000,   0.000000,   0.000000 [a0]

Properties computed using the SCF density matrix


 Multipole Moments:

 ------------------------------------------------------------------------------------
     Multipole            Electronic (a.u.)      Nuclear  (a.u.)        Total (a.u.)
 ------------------------------------------------------------------------------------

 L = 1.  Multiply by 2.5417464519 to convert [e a0] to [Debye]
 Dipole X            :         -0.0000798           -0.0000000           -0.0000798
 Dipole Y            :          0.5117249           -0.5118339           -0.0001090
 Dipole Z            :        -33.3473828           34.0350509            0.6876681
 Magnitude           :                                                    0.6876681

 ------------------------------------------------------------------------------------

*** tstop() called on Liyangs-MBP at Tue Sep 27 21:43:52 2022
Module time:
	user time   =       0.62 seconds =       0.01 minutes
	system time =       0.04 seconds =       0.00 minutes
	total time  =          1 seconds =       0.02 minutes
Total time:
	user time   =     527.84 seconds =       8.80 minutes
	system time =      33.52 seconds =       0.56 minutes
	total time  =        916 seconds =      15.27 minutes

    Psi4 stopped on: Tuesday, 27 September 2022 09:43PM
    Psi4 wall time for execution: 0:00:00.73


    -----------------------------------------------------------------------
          Psi4: An Open-Source Ab Initio Electronic Structure Package
                               Psi4 1.6.1 release

                         Git: Rev {HEAD} 5b9f6e3 


    D. G. A. Smith, L. A. Burns, A. C. Simmonett, R. M. Parrish,
    M. C. Schieber, R. Galvelis, P. Kraus, H. Kruse, R. Di Remigio,
    A. Alenaizan, A. M. James, S. Lehtola, J. P. Misiewicz, M. Scheurer,
    R. A. Shaw, J. B. Schriber, Y. Xie, Z. L. Glick, D. A. Sirianni,
    J. S. O'Brien, J. M. Waldrop, A. Kumar, E. G. Hohenstein,
    B. P. Pritchard, B. R. Brooks, H. F. Schaefer III, A. Yu. Sokolov,
    K. Patkowski, A. E. DePrince III, U. Bozkaya, R. A. King,
    F. A. Evangelista, J. M. Turney, T. D. Crawford, C. D. Sherrill,
    J. Chem. Phys. 152(18) 184108 (2020). https://doi.org/10.1063/5.0006002

                            Additional Code Authors
    E. T. Seidl, C. L. Janssen, E. F. Valeev, M. L. Leininger,
    J. F. Gonthier, R. M. Richard, H. R. McAlexander, M. Saitow, X. Wang,
    P. Verma, M. H. Lechner, and A. Jiang

             Previous Authors, Complete List of Code Contributors,
                       and Citations for Specific Modules
    https://github.com/psi4/psi4/blob/master/codemeta.json
    https://github.com/psi4/psi4/graphs/contributors
    http://psicode.org/psi4manual/master/introduction.html#citing-psifour

    -----------------------------------------------------------------------


    Psi4 started on: Tuesday, 27 September 2022 09:28PM

    Process ID: 68284
    Host:       Liyangs-MBP
    PSIDATADIR: /opt/miniconda3/envs/qm-tools/share/psi4
    Memory:     476.8 MiB
    Threads:    1
    
  ==> Input QCSchema <==

--------------------------------------------------------------------------
{'driver': 'energy',
 'extras': {'psiapi': True, 'wfn_qcvars_only': True},
 'id': None,
 'keywords': {'function_kwargs': {}},
 'model': {'basis': 'aug-cc-pvdz', 'method': 'scf'},
 'molecule': {'atom_labels': ['1', '2', '3', '5', '6', '7'],
              'atomic_numbers': [8, 1, 1, 8, 1, 1],
              'fix_com': True,
              'fix_orientation': True,
              'fragment_charges': [0.0, 0.0],
              'fragment_multiplicities': [1, 1],
              'fragments': [[0, 1, 2], [3, 4, 5]],
              'geometry': [4.3150013943022856e-17, -0.05118338925575475, -3.399508961950016, 4.3150013943022856e-17,
                           -0.05118338925575475, -1.5097828364921886, 4.3150013943022856e-17, 1.7781852282291912,
                           -3.8732971958679467, 4.3150013943022856e-17, -0.05118338925575475, 3.214532477152382,
                           0.8182754154208083, -1.4684779833491273, 4.159395539881295, -0.8182754154208096,
                           1.3661112048376158, 4.159395539881296],
              'mass_numbers': [16, 1, 1, 16, 1, 1],
              'masses': [15.99491461957, 1.00782503223, 1.00782503223, 15.99491461957, 1.00782503223, 1.00782503223],
              'molecular_charge': 0.0,
              'molecular_multiplicity': 1,
              'name': 'H4O2',
              'provenance': {'creator': 'QCElemental',
                             'routine': 'qcelemental.molparse.from_string',
                             'version': 'v0.25.0'},
              'real': [True, True, True, False, False, False],
              'schema_name': 'qcschema_molecule',
              'schema_version': 2,
              'symbols': ['O', 'H', 'H', 'O', 'H', 'H'],
              'validated': True},
 'protocols': {'stdout': True},
 'provenance': {'creator': 'QCElemental', 'routine': 'qcelemental.models.results', 'version': 'v0.25.0'},
 'schema_name': 'qcschema_input',
 'schema_version': 1}
--------------------------------------------------------------------------

Scratch directory: /tmp/

*** tstart() called on Liyangs-MBP
*** at Tue Sep 27 21:43:52 2022

   => Loading Basis Set <=

    Name: AUG-CC-PVDZ
    Role: ORBITAL
    Keyword: BASIS
    atoms 1, 4     entry O          line   254 file /opt/miniconda3/envs/qm-tools/share/psi4/basis/aug-cc-pvdz.gbs 
    atoms 2-3, 5-6 entry H          line    40 file /opt/miniconda3/envs/qm-tools/share/psi4/basis/aug-cc-pvdz.gbs 


         ---------------------------------------------------------
                                   SCF
               by Justin Turney, Rob Parrish, Andy Simmonett
                          and Daniel G. A. Smith
                              RHF Reference
                        1 Threads,    476 MiB Core
         ---------------------------------------------------------

  ==> Geometry <==

    Molecular point group: c1
    Full point group: C1

    Geometry (in Bohr), charge = 0, multiplicity = 1:

       Center              X                  Y                   Z               Mass       
    ------------   -----------------  -----------------  -----------------  -----------------
         O            0.000000000000    -0.051183389256    -3.399508961950    15.994914619570
         H            0.000000000000    -0.051183389256    -1.509782836492     1.007825032230
         H            0.000000000000     1.778185228229    -3.873297195868     1.007825032230
      Gh(O)           0.000000000000    -0.051183389256     3.214532477152    15.994914619570
      Gh(H)           0.818275415421    -1.468477983349     4.159395539881     1.007825032230
      Gh(H)          -0.818275415421     1.366111204838     4.159395539881     1.007825032230

  Running in c1 symmetry.

  Rotational constants: A =      7.04264  B =      0.14935  C =      0.14663 [cm^-1]
  Rotational constants: A = 211133.02440  B =   4477.43080  C =   4395.77891 [MHz]
  Nuclear repulsion =    8.801420354575152

  Charge       = 0
  Multiplicity = 1
  Electrons    = 10
  Nalpha       = 5
  Nbeta        = 5

  ==> Algorithm <==

  SCF Algorithm Type is DF.
  DIIS enabled.
  MOM disabled.
  Fractional occupation disabled.
  Guess Type is SAD.
  Energy threshold   = 1.00e-06
  Density threshold  = 1.00e-06
  Integral threshold = 1.00e-12

  ==> Primary Basis <==

  Basis Set: AUG-CC-PVDZ
    Blend: AUG-CC-PVDZ
    Number of shells: 38
    Number of basis functions: 82
    Number of Cartesian functions: 86
    Spherical Harmonics?: true
    Max angular momentum: 2

   => Loading Basis Set <=

    Name: (AUG-CC-PVDZ AUX)
    Role: JKFIT
    Keyword: DF_BASIS_SCF
    atoms 1, 4     entry O          line   270 file /opt/miniconda3/envs/qm-tools/share/psi4/basis/aug-cc-pvdz-jkfit.gbs 
    atoms 2-3, 5-6 entry H          line    70 file /opt/miniconda3/envs/qm-tools/share/psi4/basis/aug-cc-pvdz-jkfit.gbs 

  ==> Integral Setup <==

  DFHelper Memory: AOs need 0.017 GiB; user supplied 0.349 GiB. Using in-core AOs.

  ==> MemDFJK: Density-Fitted J/K Matrices <==

    J tasked:                   Yes
    K tasked:                   Yes
    wK tasked:                   No
    OpenMP threads:               1
    Memory [MiB]:               357
    Algorithm:                 Core
    Schwarz Cutoff:           1E-12
    Mask sparsity (%):       0.2677
    Fitting Condition:        1E-10

   => Auxiliary Basis Set <=

  Basis Set: (AUG-CC-PVDZ AUX)
    Blend: AUG-CC-PVDZ-JKFIT
    Number of shells: 104
    Number of basis functions: 300
    Number of Cartesian functions: 342
    Spherical Harmonics?: true
    Max angular momentum: 3

  Minimum eigenvalue in the overlap matrix is 2.2884450638E-03.
  Reciprocal condition number of the overlap matrix is 3.3952100185E-04.
    Using symmetric orthogonalization.

  ==> Pre-Iterations <==

  SCF Guess: Superposition of Atomic Densities via on-the-fly atomic UHF (no occupation information).

   -------------------------
    Irrep   Nso     Nmo    
   -------------------------
     A         82      82 
   -------------------------
    Total      82      82
   -------------------------

  ==> Iterations <==

                           Total Energy        Delta E     RMS |[F,P]|

   @DF-RHF iter SAD:   -75.41487090979507   -7.54149e+01   0.00000e+00 
   @DF-RHF iter   1:   -75.94940638472676   -5.34535e-01   5.50483e-03 ADIIS/DIIS
   @DF-RHF iter   2:   -76.00128030487326   -5.18739e-02   3.77362e-03 ADIIS/DIIS
   @DF-RHF iter   3:   -76.03522764344601   -3.39473e-02   2.81199e-04 ADIIS/DIIS
   @DF-RHF iter   4:   -76.03568120166135   -4.53558e-04   6.60311e-05 DIIS
   @DF-RHF iter   5:   -76.03571134440422   -3.01427e-05   1.56247e-05 DIIS
   @DF-RHF iter   6:   -76.03571391284432   -2.56844e-06   3.08952e-06 DIIS
   @DF-RHF iter   7:   -76.03571401604961   -1.03205e-07   5.04150e-07 DIIS
  Energy and wave function converged.


  ==> Post-Iterations <==

    Orbital Energies [Eh]
    ---------------------

    Doubly Occupied:                                                      

       1A    -20.584254     2A     -1.335648     3A     -0.696513  
       4A     -0.577390     5A     -0.506090  

    Virtual:                                                              

       6A      0.024397     7A      0.048374     8A      0.058344  
       9A      0.079677    10A      0.136073    11A      0.145303  
      12A      0.175986    13A      0.191164    14A      0.215582  
      15A      0.220733    16A      0.228644    17A      0.262822  
      18A      0.313984    19A      0.349264    20A      0.370744  
      21A      0.394163    22A      0.411159    23A      0.415252  
      24A      0.424837    25A      0.455391    26A      0.461696  
      27A      0.493017    28A      0.515719    29A      0.532478  
      30A      0.570672    31A      0.611687    32A      0.648173  
      33A      0.728363    34A      0.809496    35A      0.893377  
      36A      0.938289    37A      1.006807    38A      1.104638  
      39A      1.138000    40A      1.161355    41A      1.184562  
      42A      1.204421    43A      1.272888    44A      1.286388  
      45A      1.289796    46A      1.327371    47A      1.336940  
      48A      1.416155    49A      1.489637    50A      1.517921  
      51A      1.662092    52A      1.986202    53A      1.989777  
      54A      2.052577    55A      2.083444    56A      2.316209  
      57A      2.358293    58A      2.382053    59A      2.387881  
      60A      2.396753    61A      2.431532    62A      2.636206  
      63A      2.742664    64A      2.784940    65A      2.980960  
      66A      3.370574    67A      3.673266    68A      3.699655  
      69A      3.712750    70A      3.902472    71A      3.925083  
      72A      4.019577    73A      4.243378    74A      4.863725  
      75A      4.944884    76A      4.995284    77A      5.288448  
      78A      5.326724    79A      5.573038    80A      6.256954  
      81A      6.814173    82A     33.527378  

    Final Occupation by Irrep:
              A 
    DOCC [     5 ]

  @DF-RHF Final Energy:   -76.03571401604961

   => Energetics <=

    Nuclear Repulsion Energy =              8.8014203545751517
    One-Electron Energy =                -122.2744577902572587
    Two-Electron Energy =                  37.4373234196324773
    Total Energy =                        -76.0357140160496243

Computation Completed


Properties will be evaluated at   0.000000,   0.000000,   0.000000 [a0]

Properties computed using the SCF density matrix


 Multipole Moments:

 ------------------------------------------------------------------------------------
     Multipole            Electronic (a.u.)      Nuclear  (a.u.)        Total (a.u.)
 ------------------------------------------------------------------------------------

 L = 1.  Multiply by 2.5417464519 to convert [e a0] to [Debye]
 Dipole X            :         -0.0000420            0.0000000           -0.0000420
 Dipole Y            :         -0.6852064            1.3175347            0.6323283
 Dipole Z            :         33.0685536          -32.5791517            0.4894019
 Magnitude           :                                                    0.7995957

 ------------------------------------------------------------------------------------

*** tstop() called on Liyangs-MBP at Tue Sep 27 21:43:52 2022
Module time:
	user time   =       0.63 seconds =       0.01 minutes
	system time =       0.04 seconds =       0.00 minutes
	total time  =          0 seconds =       0.00 minutes
Total time:
	user time   =     528.54 seconds =       8.81 minutes
	system time =      33.57 seconds =       0.56 minutes
	total time  =        916 seconds =      15.27 minutes

    Psi4 stopped on: Tuesday, 27 September 2022 09:43PM
    Psi4 wall time for execution: 0:00:00.74


    -----------------------------------------------------------------------
          Psi4: An Open-Source Ab Initio Electronic Structure Package
                               Psi4 1.6.1 release

                         Git: Rev {HEAD} 5b9f6e3 


    D. G. A. Smith, L. A. Burns, A. C. Simmonett, R. M. Parrish,
    M. C. Schieber, R. Galvelis, P. Kraus, H. Kruse, R. Di Remigio,
    A. Alenaizan, A. M. James, S. Lehtola, J. P. Misiewicz, M. Scheurer,
    R. A. Shaw, J. B. Schriber, Y. Xie, Z. L. Glick, D. A. Sirianni,
    J. S. O'Brien, J. M. Waldrop, A. Kumar, E. G. Hohenstein,
    B. P. Pritchard, B. R. Brooks, H. F. Schaefer III, A. Yu. Sokolov,
    K. Patkowski, A. E. DePrince III, U. Bozkaya, R. A. King,
    F. A. Evangelista, J. M. Turney, T. D. Crawford, C. D. Sherrill,
    J. Chem. Phys. 152(18) 184108 (2020). https://doi.org/10.1063/5.0006002

                            Additional Code Authors
    E. T. Seidl, C. L. Janssen, E. F. Valeev, M. L. Leininger,
    J. F. Gonthier, R. M. Richard, H. R. McAlexander, M. Saitow, X. Wang,
    P. Verma, M. H. Lechner, and A. Jiang

             Previous Authors, Complete List of Code Contributors,
                       and Citations for Specific Modules
    https://github.com/psi4/psi4/blob/master/codemeta.json
    https://github.com/psi4/psi4/graphs/contributors
    http://psicode.org/psi4manual/master/introduction.html#citing-psifour

    -----------------------------------------------------------------------


    Psi4 started on: Tuesday, 27 September 2022 09:28PM

    Process ID: 68284
    Host:       Liyangs-MBP
    PSIDATADIR: /opt/miniconda3/envs/qm-tools/share/psi4
    Memory:     476.8 MiB
    Threads:    1
    
  ==> Input QCSchema <==

--------------------------------------------------------------------------
{'driver': 'energy',
 'extras': {'psiapi': True, 'wfn_qcvars_only': True},
 'id': None,
 'keywords': {'function_kwargs': {}},
 'model': {'basis': 'aug-cc-pvdz', 'method': 'scf'},
 'molecule': {'atom_labels': ['1', '2', '3', '5', '6', '7'],
              'atomic_numbers': [8, 1, 1, 8, 1, 1],
              'fix_com': True,
              'fix_orientation': True,
              'fragment_charges': [0.0, 0.0],
              'fragment_multiplicities': [1, 1],
              'fragments': [[0, 1, 2], [3, 4, 5]],
              'geometry': [4.3150013943022856e-17, -0.05118338925575475, -3.399508961950016, 4.3150013943022856e-17,
                           -0.05118338925575475, -1.5097828364921886, 4.3150013943022856e-17, 1.7781852282291912,
                           -3.8732971958679467, 4.3150013943022856e-17, -0.05118338925575475, 3.214532477152382,
                           0.8182754154208083, -1.4684779833491273, 4.159395539881295, -0.8182754154208096,
                           1.3661112048376158, 4.159395539881296],
              'mass_numbers': [16, 1, 1, 16, 1, 1],
              'masses': [15.99491461957, 1.00782503223, 1.00782503223, 15.99491461957, 1.00782503223, 1.00782503223],
              'molecular_charge': 0.0,
              'molecular_multiplicity': 1,
              'name': 'H4O2',
              'provenance': {'creator': 'QCElemental',
                             'routine': 'qcelemental.molparse.from_string',
                             'version': 'v0.25.0'},
              'real': [True, True, True, True, True, True],
              'schema_name': 'qcschema_molecule',
              'schema_version': 2,
              'symbols': ['O', 'H', 'H', 'O', 'H', 'H'],
              'validated': True},
 'protocols': {'stdout': True},
 'provenance': {'creator': 'QCElemental', 'routine': 'qcelemental.models.results', 'version': 'v0.25.0'},
 'schema_name': 'qcschema_input',
 'schema_version': 1}
--------------------------------------------------------------------------

Scratch directory: /tmp/

*** tstart() called on Liyangs-MBP
*** at Tue Sep 27 21:43:53 2022

   => Loading Basis Set <=

    Name: AUG-CC-PVDZ
    Role: ORBITAL
    Keyword: BASIS
    atoms 1, 4     entry O          line   254 file /opt/miniconda3/envs/qm-tools/share/psi4/basis/aug-cc-pvdz.gbs 
    atoms 2-3, 5-6 entry H          line    40 file /opt/miniconda3/envs/qm-tools/share/psi4/basis/aug-cc-pvdz.gbs 


         ---------------------------------------------------------
                                   SCF
               by Justin Turney, Rob Parrish, Andy Simmonett
                          and Daniel G. A. Smith
                              RHF Reference
                        1 Threads,    476 MiB Core
         ---------------------------------------------------------

  ==> Geometry <==

    Molecular point group: c1
    Full point group: C1

    Geometry (in Bohr), charge = 0, multiplicity = 1:

       Center              X                  Y                   Z               Mass       
    ------------   -----------------  -----------------  -----------------  -----------------
         O            0.000000000000    -0.051183389256    -3.399508961950    15.994914619570
         H            0.000000000000    -0.051183389256    -1.509782836492     1.007825032230
         H            0.000000000000     1.778185228229    -3.873297195868     1.007825032230
         O            0.000000000000    -0.051183389256     3.214532477152    15.994914619570
         H            0.818275415421    -1.468477983349     4.159395539881     1.007825032230
         H           -0.818275415421     1.366111204838     4.159395539881     1.007825032230

  Running in c1 symmetry.

  Rotational constants: A =      7.04264  B =      0.14935  C =      0.14663 [cm^-1]
  Rotational constants: A = 211133.02440  B =   4477.43080  C =   4395.77891 [MHz]
  Nuclear repulsion =   32.682727242975339

  Charge       = 0
  Multiplicity = 1
  Electrons    = 20
  Nalpha       = 10
  Nbeta        = 10

  ==> Algorithm <==

  SCF Algorithm Type is DF.
  DIIS enabled.
  MOM disabled.
  Fractional occupation disabled.
  Guess Type is SAD.
  Energy threshold   = 1.00e-06
  Density threshold  = 1.00e-06
  Integral threshold = 1.00e-12

  ==> Primary Basis <==

  Basis Set: AUG-CC-PVDZ
    Blend: AUG-CC-PVDZ
    Number of shells: 38
    Number of basis functions: 82
    Number of Cartesian functions: 86
    Spherical Harmonics?: true
    Max angular momentum: 2

   => Loading Basis Set <=

    Name: (AUG-CC-PVDZ AUX)
    Role: JKFIT
    Keyword: DF_BASIS_SCF
    atoms 1, 4     entry O          line   270 file /opt/miniconda3/envs/qm-tools/share/psi4/basis/aug-cc-pvdz-jkfit.gbs 
    atoms 2-3, 5-6 entry H          line    70 file /opt/miniconda3/envs/qm-tools/share/psi4/basis/aug-cc-pvdz-jkfit.gbs 

  ==> Integral Setup <==

  DFHelper Memory: AOs need 0.017 GiB; user supplied 0.349 GiB. Using in-core AOs.

  ==> MemDFJK: Density-Fitted J/K Matrices <==

    J tasked:                   Yes
    K tasked:                   Yes
    wK tasked:                   No
    OpenMP threads:               1
    Memory [MiB]:               357
    Algorithm:                 Core
    Schwarz Cutoff:           1E-12
    Mask sparsity (%):       0.2677
    Fitting Condition:        1E-10

   => Auxiliary Basis Set <=

  Basis Set: (AUG-CC-PVDZ AUX)
    Blend: AUG-CC-PVDZ-JKFIT
    Number of shells: 104
    Number of basis functions: 300
    Number of Cartesian functions: 342
    Spherical Harmonics?: true
    Max angular momentum: 3

  Minimum eigenvalue in the overlap matrix is 2.2884450638E-03.
  Reciprocal condition number of the overlap matrix is 3.3952100185E-04.
    Using symmetric orthogonalization.

  ==> Pre-Iterations <==

  SCF Guess: Superposition of Atomic Densities via on-the-fly atomic UHF (no occupation information).

   -------------------------
    Irrep   Nso     Nmo    
   -------------------------
     A         82      82 
   -------------------------
    Total      82      82
   -------------------------

  ==> Iterations <==

                           Total Energy        Delta E     RMS |[F,P]|

   @DF-RHF iter SAD:  -150.83946690087834   -1.50839e+02   0.00000e+00 
   @DF-RHF iter   1:  -151.90685142800390   -1.06738e+00   7.64120e-03 ADIIS/DIIS
   @DF-RHF iter   2:  -152.00740308941829   -1.00552e-01   5.11246e-03 ADIIS/DIIS
   @DF-RHF iter   3:  -152.06944096549961   -6.20379e-02   4.06009e-04 ADIIS/DIIS
   @DF-RHF iter   4:  -152.07037580805329   -9.34843e-04   9.01736e-05 DIIS
   @DF-RHF iter   5:  -152.07043340546889   -5.75974e-05   2.41106e-05 DIIS
   @DF-RHF iter   6:  -152.07043869021192   -5.28474e-06   1.00159e-05 DIIS
   @DF-RHF iter   7:  -152.07043917167510   -4.81463e-07   2.74267e-06 DIIS
   @DF-RHF iter   8:  -152.07043923996636   -6.82913e-08   4.40324e-07 DIIS
  Energy and wave function converged.


  ==> Post-Iterations <==

    Orbital Energies [Eh]
    ---------------------

    Doubly Occupied:                                                      

       1A    -20.592769     2A    -20.562545     3A     -1.343444  
       4A     -1.314805     5A     -0.738223     6A     -0.676377  
       7A     -0.572024     8A     -0.553661     9A     -0.518443  
      10A     -0.485532  

    Virtual:                                                              

      11A      0.026860    12A      0.049586    13A      0.056564  
      14A      0.088850    15A      0.175060    16A      0.182585  
      17A      0.193145    18A      0.213476    19A      0.229832  
      20A      0.233634    21A      0.245771    22A      0.265794  
      23A      0.291303    24A      0.302987    25A      0.351088  
      26A      0.364204    27A      0.400500    28A      0.417317  
      29A      0.430804    30A      0.449325    31A      0.509390  
      32A      0.528914    33A      0.536770    34A      0.577252  
      35A      0.627393    36A      0.649391    37A      0.663515  
      38A      0.765189    39A      0.842499    40A      0.867096  
      41A      0.876230    42A      0.961036    43A      1.056274  
      44A      1.130359    45A      1.132492    46A      1.161803  
      47A      1.205137    48A      1.222047    49A      1.324037  
      50A      1.421293    51A      1.462040    52A      1.485157  
      53A      1.507292    54A      1.557724    55A      1.604634  
      56A      1.797460    57A      1.941403    58A      2.010701  
      59A      2.021303    60A      2.032146    61A      2.040039  
      62A      2.105945    63A      2.359783    64A      2.400633  
      65A      2.418789    66A      2.459733    67A      2.519987  
      68A      2.693520    69A      2.737635    70A      2.772313  
      71A      2.881279    72A      3.003509    73A      3.637398  
      74A      3.683540    75A      3.697145    76A      3.723802  
      77A      3.736795    78A      3.745390    79A      4.031297  
      80A      4.120933    81A      4.163991    82A      4.269169  

    Final Occupation by Irrep:
              A 
    DOCC [    10 ]

  @DF-RHF Final Energy:  -152.07043923996636

   => Energetics <=

    Nuclear Repulsion Energy =             32.6827272429753393
    One-Electron Energy =                -274.7906609691040103
    Two-Electron Energy =                  90.0374944861623021
    Total Energy =                       -152.0704392399663618

Computation Completed


Properties will be evaluated at   0.000000,   0.000000,   0.000000 [a0]

Properties computed using the SCF density matrix


 Multipole Moments:

 ------------------------------------------------------------------------------------
     Multipole            Electronic (a.u.)      Nuclear  (a.u.)        Total (a.u.)
 ------------------------------------------------------------------------------------

 L = 1.  Multiply by 2.5417464519 to convert [e a0] to [Debye]
 Dipole X            :          0.0008693           -0.0000000            0.0008693
 Dipole Y            :         -0.1908299            0.8057008            0.6148709
 Dipole Z            :         -0.1471396            1.4558992            1.3087595
 Magnitude           :                                                    1.4460009

 ------------------------------------------------------------------------------------

*** tstop() called on Liyangs-MBP at Tue Sep 27 21:43:53 2022
Module time:
	user time   =       0.64 seconds =       0.01 minutes
	system time =       0.04 seconds =       0.00 minutes
	total time  =          0 seconds =       0.00 minutes
Total time:
	user time   =     529.26 seconds =       8.82 minutes
	system time =      33.62 seconds =       0.56 minutes
	total time  =        917 seconds =      15.28 minutes

    Psi4 stopped on: Tuesday, 27 September 2022 09:43PM
    Psi4 wall time for execution: 0:00:00.75


  //>>>>>>>>>>>>>>>>>>>>>>>>>>>>>>>>>>>//
  //          ManyBody Results         //
  //<<<<<<<<<<<<<<<<<<<<<<<<<<<<<<<<<<<//


   ==> N-Body: Counterpoise Corrected (CP) energies <==

        n-Body     Total Energy            Interaction Energy                          N-body Contribution to Interaction Energy
                   [Eh]                    [Eh]                  [kcal/mol]            [Eh]                  [kcal/mol]
             1  N/A                         0.000000000000        0.000000000000        0.000000000000        0.000000000000
  FULL/RTN   2  N/A                        -0.004900055625       -3.074831326796       -0.004900055625       -3.074831326796

