
Scratch directory: /tmp/

  //>>>>>>>>>>>>>>>>>>>>>>>>>>>>>>>>>>>>>//
  // ManyBody Setup: N-Body Levels [1, 2]//
  //<<<<<<<<<<<<<<<<<<<<<<<<<<<<<<<<<<<<<//

        Number of 1-body computations:     2
        Number of 2-body computations:     1

    -----------------------------------------------------------------------
          Psi4: An Open-Source Ab Initio Electronic Structure Package
                               Psi4 1.6.1 release

                         Git: Rev {HEAD} 5b9f6e3 


    D. G. A. Smith, L. A. Burns, A. C. Simmonett, R. M. Parrish,
    M. C. Schieber, R. Galvelis, P. Kraus, H. Kruse, R. Di Remigio,
    A. Alenaizan, A. M. James, S. Lehtola, J. P. Misiewicz, M. Scheurer,
    R. A. Shaw, J. B. Schriber, Y. Xie, Z. L. Glick, D. A. Sirianni,
    J. S. O'Brien, J. M. Waldrop, A. Kumar, E. G. Hohenstein,
    B. P. Pritchard, B. R. Brooks, H. F. Schaefer III, A. Yu. Sokolov,
    K. Patkowski, A. E. DePrince III, U. Bozkaya, R. A. King,
    F. A. Evangelista, J. M. Turney, T. D. Crawford, C. D. Sherrill,
    J. Chem. Phys. 152(18) 184108 (2020). https://doi.org/10.1063/5.0006002

                            Additional Code Authors
    E. T. Seidl, C. L. Janssen, E. F. Valeev, M. L. Leininger,
    J. F. Gonthier, R. M. Richard, H. R. McAlexander, M. Saitow, X. Wang,
    P. Verma, M. H. Lechner, and A. Jiang

             Previous Authors, Complete List of Code Contributors,
                       and Citations for Specific Modules
    https://github.com/psi4/psi4/blob/master/codemeta.json
    https://github.com/psi4/psi4/graphs/contributors
    http://psicode.org/psi4manual/master/introduction.html#citing-psifour

    -----------------------------------------------------------------------


    Psi4 started on: Tuesday, 27 September 2022 09:28PM

    Process ID: 68284
    Host:       Liyangs-MBP
    PSIDATADIR: /opt/miniconda3/envs/qm-tools/share/psi4
    Memory:     476.8 MiB
    Threads:    1
    
  ==> Input QCSchema <==

--------------------------------------------------------------------------
{'driver': 'energy',
 'extras': {'psiapi': True, 'wfn_qcvars_only': True},
 'id': None,
 'keywords': {'function_kwargs': {}},
 'model': {'basis': 'aug-cc-pvdz', 'method': 'scf'},
 'molecule': {'atom_labels': ['1', '2', '3', '5', '6', '7'],
              'atomic_numbers': [8, 1, 1, 8, 1, 1],
              'fix_com': True,
              'fix_orientation': True,
              'fragment_charges': [0.0, 0.0],
              'fragment_multiplicities': [1, 1],
              'fragments': [[0, 1, 2], [3, 4, 5]],
              'geometry': [0.0511833892557548, 3.3050226556771247, 0.0, 0.0511833892557548, 1.4152965302192972, 0.0,
                           -1.7781852282291912, 3.7788108895950563, 0.0, 0.0511833892557548, -3.120046170879491, 0.0,
                           0.0511833892557548, -4.064909233608404, -1.6365508308416188, 0.0511833892557548,
                           -4.064909233608404, 1.6365508308416188],
              'mass_numbers': [16, 1, 1, 16, 1, 1],
              'masses': [15.99491461957, 1.00782503223, 1.00782503223, 15.99491461957, 1.00782503223, 1.00782503223],
              'molecular_charge': 0.0,
              'molecular_multiplicity': 1,
              'name': 'H4O2',
              'provenance': {'creator': 'QCElemental',
                             'routine': 'qcelemental.molparse.from_string',
                             'version': 'v0.25.0'},
              'real': [False, False, False, True, True, True],
              'schema_name': 'qcschema_molecule',
              'schema_version': 2,
              'symbols': ['O', 'H', 'H', 'O', 'H', 'H'],
              'validated': True},
 'protocols': {'stdout': True},
 'provenance': {'creator': 'QCElemental', 'routine': 'qcelemental.models.results', 'version': 'v0.25.0'},
 'schema_name': 'qcschema_input',
 'schema_version': 1}
--------------------------------------------------------------------------

Scratch directory: /tmp/

*** tstart() called on Liyangs-MBP
*** at Tue Sep 27 21:42:30 2022

   => Loading Basis Set <=

    Name: AUG-CC-PVDZ
    Role: ORBITAL
    Keyword: BASIS
    atoms 1, 4     entry O          line   254 file /opt/miniconda3/envs/qm-tools/share/psi4/basis/aug-cc-pvdz.gbs 
    atoms 2-3, 5-6 entry H          line    40 file /opt/miniconda3/envs/qm-tools/share/psi4/basis/aug-cc-pvdz.gbs 


         ---------------------------------------------------------
                                   SCF
               by Justin Turney, Rob Parrish, Andy Simmonett
                          and Daniel G. A. Smith
                              RHF Reference
                        1 Threads,    476 MiB Core
         ---------------------------------------------------------

  ==> Geometry <==

    Molecular point group: cs
    Full point group: Cs

    Geometry (in Bohr), charge = 0, multiplicity = 1:

       Center              X                  Y                   Z               Mass       
    ------------   -----------------  -----------------  -----------------  -----------------
      Gh(O)           0.051183389256     3.305022655677     0.000000000000    15.994914619570
      Gh(H)           0.051183389256     1.415296530219     0.000000000000     1.007825032230
      Gh(H)          -1.778185228229     3.778810889595     0.000000000000     1.007825032230
         O            0.051183389256    -3.120046170879     0.000000000000    15.994914619570
         H            0.051183389256    -4.064909233608    -1.636550830842     1.007825032230
         H            0.051183389256    -4.064909233608     1.636550830842     1.007825032230

  Running in cs symmetry.

  Rotational constants: A =      7.04241  B =      0.15701  C =      0.15609 [cm^-1]
  Rotational constants: A = 211126.01665  B =   4707.02242  C =   4679.57515 [MHz]
  Nuclear repulsion =    8.772355975749342

  Charge       = 0
  Multiplicity = 1
  Electrons    = 10
  Nalpha       = 5
  Nbeta        = 5

  ==> Algorithm <==

  SCF Algorithm Type is DF.
  DIIS enabled.
  MOM disabled.
  Fractional occupation disabled.
  Guess Type is SAD.
  Energy threshold   = 1.00e-06
  Density threshold  = 1.00e-06
  Integral threshold = 1.00e-12

  ==> Primary Basis <==

  Basis Set: AUG-CC-PVDZ
    Blend: AUG-CC-PVDZ
    Number of shells: 38
    Number of basis functions: 82
    Number of Cartesian functions: 86
    Spherical Harmonics?: true
    Max angular momentum: 2

   => Loading Basis Set <=

    Name: (AUG-CC-PVDZ AUX)
    Role: JKFIT
    Keyword: DF_BASIS_SCF
    atoms 1, 4     entry O          line   270 file /opt/miniconda3/envs/qm-tools/share/psi4/basis/aug-cc-pvdz-jkfit.gbs 
    atoms 2-3, 5-6 entry H          line    70 file /opt/miniconda3/envs/qm-tools/share/psi4/basis/aug-cc-pvdz-jkfit.gbs 

  ==> Integral Setup <==

  DFHelper Memory: AOs need 0.017 GiB; user supplied 0.349 GiB. Using in-core AOs.

  ==> MemDFJK: Density-Fitted J/K Matrices <==

    J tasked:                   Yes
    K tasked:                   Yes
    wK tasked:                   No
    OpenMP threads:               1
    Memory [MiB]:               357
    Algorithm:                 Core
    Schwarz Cutoff:           1E-12
    Mask sparsity (%):       0.0892
    Fitting Condition:        1E-10

   => Auxiliary Basis Set <=

  Basis Set: (AUG-CC-PVDZ AUX)
    Blend: AUG-CC-PVDZ-JKFIT
    Number of shells: 104
    Number of basis functions: 300
    Number of Cartesian functions: 342
    Spherical Harmonics?: true
    Max angular momentum: 3

  Minimum eigenvalue in the overlap matrix is 2.2749847951E-03.
  Reciprocal condition number of the overlap matrix is 3.6267211525E-04.
    Using symmetric orthogonalization.

  ==> Pre-Iterations <==

  SCF Guess: Superposition of Atomic Densities via on-the-fly atomic UHF (no occupation information).

   -------------------------
    Irrep   Nso     Nmo    
   -------------------------
     A'        55      55 
     A"        27      27 
   -------------------------
    Total      82      82
   -------------------------

  ==> Iterations <==

                           Total Energy        Delta E     RMS |[F,P]|

   @DF-RHF iter SAD:   -75.40236292957186   -7.54024e+01   0.00000e+00 
   @DF-RHF iter   1:   -75.94507330324421   -5.42710e-01   7.37066e-03 ADIIS/DIIS
   @DF-RHF iter   2:   -75.99624904695960   -5.11757e-02   4.99018e-03 ADIIS/DIIS
   @DF-RHF iter   3:   -76.02932297558453   -3.30739e-02   3.82791e-04 ADIIS/DIIS
   @DF-RHF iter   4:   -76.02980350542182   -4.80530e-04   8.91887e-05 DIIS
   @DF-RHF iter   5:   -76.02983606592504   -3.25605e-05   2.18222e-05 DIIS
   @DF-RHF iter   6:   -76.02983914523537   -3.07931e-06   4.67400e-06 DIIS
   @DF-RHF iter   7:   -76.02983929973902   -1.54504e-07   8.56407e-07 DIIS
  Energy and wave function converged.


  ==> Post-Iterations <==

    Orbital Energies [Eh]
    ---------------------

    Doubly Occupied:                                                      

       1Ap   -20.575759     2Ap    -1.325866     1App   -0.721211  
       3Ap    -0.548260     4Ap    -0.500735  

    Virtual:                                                              

       5Ap     0.032764     6Ap     0.053039     2App    0.055898  
       7Ap     0.079536     8Ap     0.166117     3App    0.166677  
       9Ap     0.181023    10Ap     0.197374    11Ap     0.209552  
       4App    0.227413    12Ap     0.232107    13Ap     0.253568  
       5App    0.308124    14Ap     0.328261     6App    0.373502  
      15Ap     0.394740    16Ap     0.426375     7App    0.451408  
      17Ap     0.454394    18Ap     0.500162     8App    0.511191  
      19Ap     0.520885     9App    0.546310    20Ap     0.558157  
      21Ap     0.598261    22Ap     0.649627    10App    0.652073  
      23Ap     0.684678    11App    0.848290    24Ap     0.876454  
      25Ap     0.914483    12App    0.938606    26Ap     1.120204  
      27Ap     1.142263    13App    1.146322    28Ap     1.193637  
      29Ap     1.229707    30Ap     1.276575    14App    1.330240  
      31Ap     1.358412    15App    1.373998    32Ap     1.423964  
      33Ap     1.453661    34Ap     1.520149    16App    1.552480  
      35Ap     1.867656    17App    1.973668    36Ap     2.031866  
      37Ap     2.050312    18App    2.053996    38Ap     2.273700  
      19App    2.366718    20App    2.404081    39Ap     2.441371  
      21App    2.462237    40Ap     2.521031    41Ap     2.552479  
      42Ap     2.703338    22App    2.756513    43Ap     2.898493  
      44Ap     3.412135    45Ap     3.683542    23App    3.700808  
      46Ap     3.775070    47Ap     3.902239    48Ap     4.069327  
      49Ap     4.142184    24App    4.176510    25App    4.908520  
      50Ap     4.952983    26App    4.993592    51Ap     5.149834  
      52Ap     5.471194    27App    5.651495    53Ap     6.384370  
      54Ap     6.833386    55Ap    33.564896  

    Final Occupation by Irrep:
             Ap   App 
    DOCC [     4,    1 ]

  @DF-RHF Final Energy:   -76.02983929973902

   => Energetics <=

    Nuclear Repulsion Energy =              8.7723559757493419
    One-Electron Energy =                -122.2606888137072332
    Two-Electron Energy =                  37.4584935382188746
    Total Energy =                        -76.0298392997390238

Computation Completed


Properties will be evaluated at   0.000000,   0.000000,   0.000000 [a0]

Properties computed using the SCF density matrix


 Multipole Moments:

 ------------------------------------------------------------------------------------
     Multipole            Electronic (a.u.)      Nuclear  (a.u.)        Total (a.u.)
 ------------------------------------------------------------------------------------

 L = 1.  Multiply by 2.5417464519 to convert [e a0] to [Debye]
 Dipole X            :         -0.5116995            0.5118339            0.0001344
 Dipole Y            :         32.4029225          -33.0901878           -0.6872653
 Dipole Z            :          0.0000000            0.0000000            0.0000000
 Magnitude           :                                                    0.6872653

 ------------------------------------------------------------------------------------

*** tstop() called on Liyangs-MBP at Tue Sep 27 21:42:31 2022
Module time:
	user time   =       0.62 seconds =       0.01 minutes
	system time =       0.04 seconds =       0.00 minutes
	total time  =          1 seconds =       0.02 minutes
Total time:
	user time   =     452.95 seconds =       7.55 minutes
	system time =      28.49 seconds =       0.47 minutes
	total time  =        835 seconds =      13.92 minutes

    Psi4 stopped on: Tuesday, 27 September 2022 09:42PM
    Psi4 wall time for execution: 0:00:00.73


    -----------------------------------------------------------------------
          Psi4: An Open-Source Ab Initio Electronic Structure Package
                               Psi4 1.6.1 release

                         Git: Rev {HEAD} 5b9f6e3 


    D. G. A. Smith, L. A. Burns, A. C. Simmonett, R. M. Parrish,
    M. C. Schieber, R. Galvelis, P. Kraus, H. Kruse, R. Di Remigio,
    A. Alenaizan, A. M. James, S. Lehtola, J. P. Misiewicz, M. Scheurer,
    R. A. Shaw, J. B. Schriber, Y. Xie, Z. L. Glick, D. A. Sirianni,
    J. S. O'Brien, J. M. Waldrop, A. Kumar, E. G. Hohenstein,
    B. P. Pritchard, B. R. Brooks, H. F. Schaefer III, A. Yu. Sokolov,
    K. Patkowski, A. E. DePrince III, U. Bozkaya, R. A. King,
    F. A. Evangelista, J. M. Turney, T. D. Crawford, C. D. Sherrill,
    J. Chem. Phys. 152(18) 184108 (2020). https://doi.org/10.1063/5.0006002

                            Additional Code Authors
    E. T. Seidl, C. L. Janssen, E. F. Valeev, M. L. Leininger,
    J. F. Gonthier, R. M. Richard, H. R. McAlexander, M. Saitow, X. Wang,
    P. Verma, M. H. Lechner, and A. Jiang

             Previous Authors, Complete List of Code Contributors,
                       and Citations for Specific Modules
    https://github.com/psi4/psi4/blob/master/codemeta.json
    https://github.com/psi4/psi4/graphs/contributors
    http://psicode.org/psi4manual/master/introduction.html#citing-psifour

    -----------------------------------------------------------------------


    Psi4 started on: Tuesday, 27 September 2022 09:28PM

    Process ID: 68284
    Host:       Liyangs-MBP
    PSIDATADIR: /opt/miniconda3/envs/qm-tools/share/psi4
    Memory:     476.8 MiB
    Threads:    1
    
  ==> Input QCSchema <==

--------------------------------------------------------------------------
{'driver': 'energy',
 'extras': {'psiapi': True, 'wfn_qcvars_only': True},
 'id': None,
 'keywords': {'function_kwargs': {}},
 'model': {'basis': 'aug-cc-pvdz', 'method': 'scf'},
 'molecule': {'atom_labels': ['1', '2', '3', '5', '6', '7'],
              'atomic_numbers': [8, 1, 1, 8, 1, 1],
              'fix_com': True,
              'fix_orientation': True,
              'fragment_charges': [0.0, 0.0],
              'fragment_multiplicities': [1, 1],
              'fragments': [[0, 1, 2], [3, 4, 5]],
              'geometry': [0.0511833892557548, 3.3050226556771247, 0.0, 0.0511833892557548, 1.4152965302192972, 0.0,
                           -1.7781852282291912, 3.7788108895950563, 0.0, 0.0511833892557548, -3.120046170879491, 0.0,
                           0.0511833892557548, -4.064909233608404, -1.6365508308416188, 0.0511833892557548,
                           -4.064909233608404, 1.6365508308416188],
              'mass_numbers': [16, 1, 1, 16, 1, 1],
              'masses': [15.99491461957, 1.00782503223, 1.00782503223, 15.99491461957, 1.00782503223, 1.00782503223],
              'molecular_charge': 0.0,
              'molecular_multiplicity': 1,
              'name': 'H4O2',
              'provenance': {'creator': 'QCElemental',
                             'routine': 'qcelemental.molparse.from_string',
                             'version': 'v0.25.0'},
              'real': [True, True, True, False, False, False],
              'schema_name': 'qcschema_molecule',
              'schema_version': 2,
              'symbols': ['O', 'H', 'H', 'O', 'H', 'H'],
              'validated': True},
 'protocols': {'stdout': True},
 'provenance': {'creator': 'QCElemental', 'routine': 'qcelemental.models.results', 'version': 'v0.25.0'},
 'schema_name': 'qcschema_input',
 'schema_version': 1}
--------------------------------------------------------------------------

Scratch directory: /tmp/

*** tstart() called on Liyangs-MBP
*** at Tue Sep 27 21:42:31 2022

   => Loading Basis Set <=

    Name: AUG-CC-PVDZ
    Role: ORBITAL
    Keyword: BASIS
    atoms 1, 4     entry O          line   254 file /opt/miniconda3/envs/qm-tools/share/psi4/basis/aug-cc-pvdz.gbs 
    atoms 2-3, 5-6 entry H          line    40 file /opt/miniconda3/envs/qm-tools/share/psi4/basis/aug-cc-pvdz.gbs 


         ---------------------------------------------------------
                                   SCF
               by Justin Turney, Rob Parrish, Andy Simmonett
                          and Daniel G. A. Smith
                              RHF Reference
                        1 Threads,    476 MiB Core
         ---------------------------------------------------------

  ==> Geometry <==

    Molecular point group: cs
    Full point group: Cs

    Geometry (in Bohr), charge = 0, multiplicity = 1:

       Center              X                  Y                   Z               Mass       
    ------------   -----------------  -----------------  -----------------  -----------------
         O            0.051183389256     3.305022655677     0.000000000000    15.994914619570
         H            0.051183389256     1.415296530219     0.000000000000     1.007825032230
         H           -1.778185228229     3.778810889595     0.000000000000     1.007825032230
      Gh(O)           0.051183389256    -3.120046170879     0.000000000000    15.994914619570
      Gh(H)           0.051183389256    -4.064909233608    -1.636550830842     1.007825032230
      Gh(H)           0.051183389256    -4.064909233608     1.636550830842     1.007825032230

  Running in cs symmetry.

  Rotational constants: A =      7.04241  B =      0.15701  C =      0.15609 [cm^-1]
  Rotational constants: A = 211126.01665  B =   4707.02242  C =   4679.57515 [MHz]
  Nuclear repulsion =    8.801420354575152

  Charge       = 0
  Multiplicity = 1
  Electrons    = 10
  Nalpha       = 5
  Nbeta        = 5

  ==> Algorithm <==

  SCF Algorithm Type is DF.
  DIIS enabled.
  MOM disabled.
  Fractional occupation disabled.
  Guess Type is SAD.
  Energy threshold   = 1.00e-06
  Density threshold  = 1.00e-06
  Integral threshold = 1.00e-12

  ==> Primary Basis <==

  Basis Set: AUG-CC-PVDZ
    Blend: AUG-CC-PVDZ
    Number of shells: 38
    Number of basis functions: 82
    Number of Cartesian functions: 86
    Spherical Harmonics?: true
    Max angular momentum: 2

   => Loading Basis Set <=

    Name: (AUG-CC-PVDZ AUX)
    Role: JKFIT
    Keyword: DF_BASIS_SCF
    atoms 1, 4     entry O          line   270 file /opt/miniconda3/envs/qm-tools/share/psi4/basis/aug-cc-pvdz-jkfit.gbs 
    atoms 2-3, 5-6 entry H          line    70 file /opt/miniconda3/envs/qm-tools/share/psi4/basis/aug-cc-pvdz-jkfit.gbs 

  ==> Integral Setup <==

  DFHelper Memory: AOs need 0.017 GiB; user supplied 0.349 GiB. Using in-core AOs.

  ==> MemDFJK: Density-Fitted J/K Matrices <==

    J tasked:                   Yes
    K tasked:                   Yes
    wK tasked:                   No
    OpenMP threads:               1
    Memory [MiB]:               357
    Algorithm:                 Core
    Schwarz Cutoff:           1E-12
    Mask sparsity (%):       0.0892
    Fitting Condition:        1E-10

   => Auxiliary Basis Set <=

  Basis Set: (AUG-CC-PVDZ AUX)
    Blend: AUG-CC-PVDZ-JKFIT
    Number of shells: 104
    Number of basis functions: 300
    Number of Cartesian functions: 342
    Spherical Harmonics?: true
    Max angular momentum: 3

  Minimum eigenvalue in the overlap matrix is 2.2749847951E-03.
  Reciprocal condition number of the overlap matrix is 3.6267211525E-04.
    Using symmetric orthogonalization.

  ==> Pre-Iterations <==

  SCF Guess: Superposition of Atomic Densities via on-the-fly atomic UHF (no occupation information).

   -------------------------
    Irrep   Nso     Nmo    
   -------------------------
     A'        55      55 
     A"        27      27 
   -------------------------
    Total      82      82
   -------------------------

  ==> Iterations <==

                           Total Energy        Delta E     RMS |[F,P]|

   @DF-RHF iter SAD:   -75.41487093818418   -7.54149e+01   0.00000e+00 
   @DF-RHF iter   1:   -75.94940676431537   -5.34536e-01   7.36769e-03 ADIIS/DIIS
   @DF-RHF iter   2:   -76.00128306930567   -5.18763e-02   5.05129e-03 ADIIS/DIIS
   @DF-RHF iter   3:   -76.03522454164494   -3.39415e-02   3.84909e-04 ADIIS/DIIS
   @DF-RHF iter   4:   -76.03568739472412   -4.62853e-04   8.82432e-05 DIIS
   @DF-RHF iter   5:   -76.03571752436324   -3.01296e-05   2.09369e-05 DIIS
   @DF-RHF iter   6:   -76.03572010142781   -2.57706e-06   4.13600e-06 DIIS
   @DF-RHF iter   7:   -76.03572020468846   -1.03261e-07   6.73723e-07 DIIS
  Energy and wave function converged.


  ==> Post-Iterations <==

    Orbital Energies [Eh]
    ---------------------

    Doubly Occupied:                                                      

       1Ap   -20.584252     2Ap    -1.335641     3Ap    -0.696505  
       4Ap    -0.577382     1App   -0.506086  

    Virtual:                                                              

       5Ap     0.024592     6Ap     0.049420     2App    0.057859  
       7Ap     0.076979     8Ap     0.133920     9Ap     0.150744  
      10Ap     0.183930     3App    0.184635     4App    0.218284  
      11Ap     0.220993    12Ap     0.228590    13Ap     0.263159  
      14Ap     0.320683     5App    0.360727    15Ap     0.363100  
      16Ap     0.377291     6App    0.404977     7App    0.419542  
      17Ap     0.421143    18Ap     0.458420    19Ap     0.488748  
       8App    0.499092    20Ap     0.522762     9App    0.528686  
      21Ap     0.553047    10App    0.603460    22Ap     0.645750  
      23Ap     0.724867    24Ap     0.810015    25Ap     0.899833  
      26Ap     0.946183    27Ap     1.026604    11App    1.104120  
      28Ap     1.140223    12App    1.165247    29Ap     1.191421  
      13App    1.201148    30Ap     1.271410    14App    1.295721  
      31Ap     1.300032    32Ap     1.329002    15App    1.335876  
      33Ap     1.416737    34Ap     1.484672    16App    1.538107  
      35Ap     1.672655    36Ap     1.986741    17App    1.990670  
      37Ap     2.063581    18App    2.082128    19App    2.333714  
      38Ap     2.360101    20App    2.376166    21App    2.382024  
      39Ap     2.394260    40Ap     2.431307    41Ap     2.621606  
      42Ap     2.724146    43Ap     2.810601    44Ap     2.981634  
      45Ap     3.380181    22App    3.673987    46Ap     3.698968  
      23App    3.718599    47Ap     3.900470    24App    3.928654  
      48Ap     4.022367    49Ap     4.245775    50Ap     4.878024  
      25App    4.943596    51Ap     5.005463    52Ap     5.300748  
      26App    5.325635    53Ap     5.577599    54Ap     6.273465  
      27App    6.812636    55Ap    33.527862  

    Final Occupation by Irrep:
             Ap   App 
    DOCC [     4,    1 ]

  @DF-RHF Final Energy:   -76.03572020468846

   => Energetics <=

    Nuclear Repulsion Energy =              8.8014203545751517
    One-Electron Energy =                -122.2745276540514539
    Two-Electron Energy =                  37.4373870947878444
    Total Energy =                        -76.0357202046884595

Computation Completed


Properties will be evaluated at   0.000000,   0.000000,   0.000000 [a0]

Properties computed using the SCF density matrix


 Multipole Moments:

 ------------------------------------------------------------------------------------
     Multipole            Electronic (a.u.)      Nuclear  (a.u.)        Total (a.u.)
 ------------------------------------------------------------------------------------

 L = 1.  Multiply by 2.5417464519 to convert [e a0] to [Debye]
 Dipole X            :          0.6852996           -1.3175347           -0.6322352
 Dipole Y            :        -32.1235498           31.6342887           -0.4892611
 Dipole Z            :          0.0000000            0.0000000            0.0000000
 Magnitude           :                                                    0.7994359

 ------------------------------------------------------------------------------------

*** tstop() called on Liyangs-MBP at Tue Sep 27 21:42:32 2022
Module time:
	user time   =       0.62 seconds =       0.01 minutes
	system time =       0.02 seconds =       0.00 minutes
	total time  =          1 seconds =       0.02 minutes
Total time:
	user time   =     453.64 seconds =       7.56 minutes
	system time =      28.52 seconds =       0.48 minutes
	total time  =        836 seconds =      13.93 minutes

    Psi4 stopped on: Tuesday, 27 September 2022 09:42PM
    Psi4 wall time for execution: 0:00:00.71


    -----------------------------------------------------------------------
          Psi4: An Open-Source Ab Initio Electronic Structure Package
                               Psi4 1.6.1 release

                         Git: Rev {HEAD} 5b9f6e3 


    D. G. A. Smith, L. A. Burns, A. C. Simmonett, R. M. Parrish,
    M. C. Schieber, R. Galvelis, P. Kraus, H. Kruse, R. Di Remigio,
    A. Alenaizan, A. M. James, S. Lehtola, J. P. Misiewicz, M. Scheurer,
    R. A. Shaw, J. B. Schriber, Y. Xie, Z. L. Glick, D. A. Sirianni,
    J. S. O'Brien, J. M. Waldrop, A. Kumar, E. G. Hohenstein,
    B. P. Pritchard, B. R. Brooks, H. F. Schaefer III, A. Yu. Sokolov,
    K. Patkowski, A. E. DePrince III, U. Bozkaya, R. A. King,
    F. A. Evangelista, J. M. Turney, T. D. Crawford, C. D. Sherrill,
    J. Chem. Phys. 152(18) 184108 (2020). https://doi.org/10.1063/5.0006002

                            Additional Code Authors
    E. T. Seidl, C. L. Janssen, E. F. Valeev, M. L. Leininger,
    J. F. Gonthier, R. M. Richard, H. R. McAlexander, M. Saitow, X. Wang,
    P. Verma, M. H. Lechner, and A. Jiang

             Previous Authors, Complete List of Code Contributors,
                       and Citations for Specific Modules
    https://github.com/psi4/psi4/blob/master/codemeta.json
    https://github.com/psi4/psi4/graphs/contributors
    http://psicode.org/psi4manual/master/introduction.html#citing-psifour

    -----------------------------------------------------------------------


    Psi4 started on: Tuesday, 27 September 2022 09:28PM

    Process ID: 68284
    Host:       Liyangs-MBP
    PSIDATADIR: /opt/miniconda3/envs/qm-tools/share/psi4
    Memory:     476.8 MiB
    Threads:    1
    
  ==> Input QCSchema <==

--------------------------------------------------------------------------
{'driver': 'energy',
 'extras': {'psiapi': True, 'wfn_qcvars_only': True},
 'id': None,
 'keywords': {'function_kwargs': {}},
 'model': {'basis': 'aug-cc-pvdz', 'method': 'scf'},
 'molecule': {'atom_labels': ['1', '2', '3', '5', '6', '7'],
              'atomic_numbers': [8, 1, 1, 8, 1, 1],
              'fix_com': True,
              'fix_orientation': True,
              'fragment_charges': [0.0, 0.0],
              'fragment_multiplicities': [1, 1],
              'fragments': [[0, 1, 2], [3, 4, 5]],
              'geometry': [0.0511833892557548, 3.3050226556771247, 0.0, 0.0511833892557548, 1.4152965302192972, 0.0,
                           -1.7781852282291912, 3.7788108895950563, 0.0, 0.0511833892557548, -3.120046170879491, 0.0,
                           0.0511833892557548, -4.064909233608404, -1.6365508308416188, 0.0511833892557548,
                           -4.064909233608404, 1.6365508308416188],
              'mass_numbers': [16, 1, 1, 16, 1, 1],
              'masses': [15.99491461957, 1.00782503223, 1.00782503223, 15.99491461957, 1.00782503223, 1.00782503223],
              'molecular_charge': 0.0,
              'molecular_multiplicity': 1,
              'name': 'H4O2',
              'provenance': {'creator': 'QCElemental',
                             'routine': 'qcelemental.molparse.from_string',
                             'version': 'v0.25.0'},
              'real': [True, True, True, True, True, True],
              'schema_name': 'qcschema_molecule',
              'schema_version': 2,
              'symbols': ['O', 'H', 'H', 'O', 'H', 'H'],
              'validated': True},
 'protocols': {'stdout': True},
 'provenance': {'creator': 'QCElemental', 'routine': 'qcelemental.models.results', 'version': 'v0.25.0'},
 'schema_name': 'qcschema_input',
 'schema_version': 1}
--------------------------------------------------------------------------

Scratch directory: /tmp/

*** tstart() called on Liyangs-MBP
*** at Tue Sep 27 21:42:32 2022

   => Loading Basis Set <=

    Name: AUG-CC-PVDZ
    Role: ORBITAL
    Keyword: BASIS
    atoms 1, 4     entry O          line   254 file /opt/miniconda3/envs/qm-tools/share/psi4/basis/aug-cc-pvdz.gbs 
    atoms 2-3, 5-6 entry H          line    40 file /opt/miniconda3/envs/qm-tools/share/psi4/basis/aug-cc-pvdz.gbs 


         ---------------------------------------------------------
                                   SCF
               by Justin Turney, Rob Parrish, Andy Simmonett
                          and Daniel G. A. Smith
                              RHF Reference
                        1 Threads,    476 MiB Core
         ---------------------------------------------------------

  ==> Geometry <==

    Molecular point group: cs
    Full point group: Cs

    Geometry (in Bohr), charge = 0, multiplicity = 1:

       Center              X                  Y                   Z               Mass       
    ------------   -----------------  -----------------  -----------------  -----------------
         O            0.051183389256     3.305022655677     0.000000000000    15.994914619570
         H            0.051183389256     1.415296530219     0.000000000000     1.007825032230
         H           -1.778185228229     3.778810889595     0.000000000000     1.007825032230
         O            0.051183389256    -3.120046170879     0.000000000000    15.994914619570
         H            0.051183389256    -4.064909233608    -1.636550830842     1.007825032230
         H            0.051183389256    -4.064909233608     1.636550830842     1.007825032230

  Running in cs symmetry.

  Rotational constants: A =      7.04241  B =      0.15701  C =      0.15609 [cm^-1]
  Rotational constants: A = 211126.01665  B =   4707.02242  C =   4679.57515 [MHz]
  Nuclear repulsion =   33.131951839621962

  Charge       = 0
  Multiplicity = 1
  Electrons    = 20
  Nalpha       = 10
  Nbeta        = 10

  ==> Algorithm <==

  SCF Algorithm Type is DF.
  DIIS enabled.
  MOM disabled.
  Fractional occupation disabled.
  Guess Type is SAD.
  Energy threshold   = 1.00e-06
  Density threshold  = 1.00e-06
  Integral threshold = 1.00e-12

  ==> Primary Basis <==

  Basis Set: AUG-CC-PVDZ
    Blend: AUG-CC-PVDZ
    Number of shells: 38
    Number of basis functions: 82
    Number of Cartesian functions: 86
    Spherical Harmonics?: true
    Max angular momentum: 2

   => Loading Basis Set <=

    Name: (AUG-CC-PVDZ AUX)
    Role: JKFIT
    Keyword: DF_BASIS_SCF
    atoms 1, 4     entry O          line   270 file /opt/miniconda3/envs/qm-tools/share/psi4/basis/aug-cc-pvdz-jkfit.gbs 
    atoms 2-3, 5-6 entry H          line    70 file /opt/miniconda3/envs/qm-tools/share/psi4/basis/aug-cc-pvdz-jkfit.gbs 

  ==> Integral Setup <==

  DFHelper Memory: AOs need 0.017 GiB; user supplied 0.349 GiB. Using in-core AOs.

  ==> MemDFJK: Density-Fitted J/K Matrices <==

    J tasked:                   Yes
    K tasked:                   Yes
    wK tasked:                   No
    OpenMP threads:               1
    Memory [MiB]:               357
    Algorithm:                 Core
    Schwarz Cutoff:           1E-12
    Mask sparsity (%):       0.0892
    Fitting Condition:        1E-10

   => Auxiliary Basis Set <=

  Basis Set: (AUG-CC-PVDZ AUX)
    Blend: AUG-CC-PVDZ-JKFIT
    Number of shells: 104
    Number of basis functions: 300
    Number of Cartesian functions: 342
    Spherical Harmonics?: true
    Max angular momentum: 3

  Minimum eigenvalue in the overlap matrix is 2.2749847951E-03.
  Reciprocal condition number of the overlap matrix is 3.6267211525E-04.
    Using symmetric orthogonalization.

  ==> Pre-Iterations <==

  SCF Guess: Superposition of Atomic Densities via on-the-fly atomic UHF (no occupation information).

   -------------------------
    Irrep   Nso     Nmo    
   -------------------------
     A'        55      55 
     A"        27      27 
   -------------------------
    Total      82      82
   -------------------------

  ==> Iterations <==

                           Total Energy        Delta E     RMS |[F,P]|

   @DF-RHF iter SAD:  -150.84512918070163   -1.50845e+02   0.00000e+00 
   @DF-RHF iter   1:  -151.90841398799100   -1.06328e+00   1.01978e-02 ADIIS/DIIS
   @DF-RHF iter   2:  -152.00874728249269   -1.00333e-01   6.80586e-03 ADIIS/DIIS
   @DF-RHF iter   3:  -152.07005279686740   -6.13055e-02   5.65653e-04 ADIIS/DIIS
   @DF-RHF iter   4:  -152.07102196111103   -9.69164e-04   1.20091e-04 ADIIS/DIIS
   @DF-RHF iter   5:  -152.07107889260374   -5.69315e-05   3.28020e-05 DIIS
   @DF-RHF iter   6:  -152.07108415296580   -5.26036e-06   1.41466e-05 DIIS
   @DF-RHF iter   7:  -152.07108468372104   -5.30755e-07   3.62631e-06 DIIS
   @DF-RHF iter   8:  -152.07108475264886   -6.89278e-08   5.92285e-07 DIIS
  Energy and wave function converged.


  ==> Post-Iterations <==

    Orbital Energies [Eh]
    ---------------------

    Doubly Occupied:                                                      

       1Ap   -20.594135     2Ap   -20.560713     3Ap    -1.344943  
       4Ap    -1.313140     1App   -0.739502     5Ap    -0.675140  
       6Ap    -0.574084     7Ap    -0.551574     8Ap    -0.519848  
       2App   -0.483989  

    Virtual:                                                              

       9Ap     0.026990     3App    0.051930    10Ap     0.054450  
      11Ap     0.087254    12Ap     0.174980    13Ap     0.185518  
       4App    0.201982    14Ap     0.207390     5App    0.224393  
      15Ap     0.235228    16Ap     0.245142    17Ap     0.276479  
       6App    0.295880    18Ap     0.306402    19Ap     0.339181  
       7App    0.362038    20Ap     0.389967     8App    0.421153  
      21Ap     0.430854    22Ap     0.489365     9App    0.492864  
      23Ap     0.526500    10App    0.543057    24Ap     0.580785  
      25Ap     0.628276    11App    0.640624    26Ap     0.661728  
      27Ap     0.767883    12App    0.830794    28Ap     0.855541  
      29Ap     0.889056    30Ap     0.964028    31Ap     1.090871  
      13App    1.129092    14App    1.129354    32Ap     1.183885  
      15App    1.193278    33Ap     1.215323    34Ap     1.341032  
      35Ap     1.419707    16App    1.451387    36Ap     1.483500  
      37Ap     1.501142    38Ap     1.594698    17App    1.602082  
      39Ap     1.852020    18App    1.953390    40Ap     2.010885  
      19App    2.013340    41Ap     2.033995    20App    2.037294  
      21App    2.107027    42Ap     2.369169    22App    2.397981  
      43Ap     2.409383    44Ap     2.460912    45Ap     2.516247  
      46Ap     2.684961    23App    2.735079    47Ap     2.761209  
      48Ap     2.901364    49Ap     3.004820    50Ap     3.655389  
      24App    3.682148    25App    3.696956    51Ap     3.729979  
      52Ap     3.738067    26App    3.748450    53Ap     4.043076  
      54Ap     4.122452    27App    4.161415    55Ap     4.277698  

    Final Occupation by Irrep:
             Ap   App 
    DOCC [     8,    2 ]

  @DF-RHF Final Energy:  -152.07108475264886

   => Energetics <=

    Nuclear Repulsion Energy =             33.1319518396219621
    One-Electron Energy =                -275.6919141813388592
    Two-Electron Energy =                  90.4888775890680392
    Total Energy =                       -152.0710847526488578

Computation Completed


Properties will be evaluated at   0.000000,   0.000000,   0.000000 [a0]

Properties computed using the SCF density matrix


 Multipole Moments:

 ------------------------------------------------------------------------------------
     Multipole            Electronic (a.u.)      Nuclear  (a.u.)        Total (a.u.)
 ------------------------------------------------------------------------------------

 L = 1.  Multiply by 2.5417464519 to convert [e a0] to [Debye]
 Dipole X            :          0.1899854           -0.8057008           -0.6157154
 Dipole Y            :          0.1319248           -1.4558992           -1.3239743
 Dipole Z            :          0.0000000            0.0000000            0.0000000
 Magnitude           :                                                    1.4601416

 ------------------------------------------------------------------------------------

*** tstop() called on Liyangs-MBP at Tue Sep 27 21:42:32 2022
Module time:
	user time   =       0.64 seconds =       0.01 minutes
	system time =       0.03 seconds =       0.00 minutes
	total time  =          0 seconds =       0.00 minutes
Total time:
	user time   =     454.35 seconds =       7.57 minutes
	system time =      28.56 seconds =       0.48 minutes
	total time  =        836 seconds =      13.93 minutes

    Psi4 stopped on: Tuesday, 27 September 2022 09:42PM
    Psi4 wall time for execution: 0:00:00.74


  //>>>>>>>>>>>>>>>>>>>>>>>>>>>>>>>>>>>//
  //          ManyBody Results         //
  //<<<<<<<<<<<<<<<<<<<<<<<<<<<<<<<<<<<//


   ==> N-Body: Counterpoise Corrected (CP) energies <==

        n-Body     Total Energy            Interaction Energy                          N-body Contribution to Interaction Energy
                   [Eh]                    [Eh]                  [kcal/mol]            [Eh]                  [kcal/mol]
             1  N/A                         0.000000000000        0.000000000000        0.000000000000        0.000000000000
  FULL/RTN   2  N/A                        -0.005525248221       -3.467145603885       -0.005525248221       -3.467145603885

