
Scratch directory: /tmp/

  //>>>>>>>>>>>>>>>>>>>>>>>>>>>>>>>>>>>>>//
  // ManyBody Setup: N-Body Levels [1, 2]//
  //<<<<<<<<<<<<<<<<<<<<<<<<<<<<<<<<<<<<<//

        Number of 1-body computations:     2
        Number of 2-body computations:     1

    -----------------------------------------------------------------------
          Psi4: An Open-Source Ab Initio Electronic Structure Package
                               Psi4 1.6.1 release

                         Git: Rev {HEAD} 5b9f6e3 


    D. G. A. Smith, L. A. Burns, A. C. Simmonett, R. M. Parrish,
    M. C. Schieber, R. Galvelis, P. Kraus, H. Kruse, R. Di Remigio,
    A. Alenaizan, A. M. James, S. Lehtola, J. P. Misiewicz, M. Scheurer,
    R. A. Shaw, J. B. Schriber, Y. Xie, Z. L. Glick, D. A. Sirianni,
    J. S. O'Brien, J. M. Waldrop, A. Kumar, E. G. Hohenstein,
    B. P. Pritchard, B. R. Brooks, H. F. Schaefer III, A. Yu. Sokolov,
    K. Patkowski, A. E. DePrince III, U. Bozkaya, R. A. King,
    F. A. Evangelista, J. M. Turney, T. D. Crawford, C. D. Sherrill,
    J. Chem. Phys. 152(18) 184108 (2020). https://doi.org/10.1063/5.0006002

                            Additional Code Authors
    E. T. Seidl, C. L. Janssen, E. F. Valeev, M. L. Leininger,
    J. F. Gonthier, R. M. Richard, H. R. McAlexander, M. Saitow, X. Wang,
    P. Verma, M. H. Lechner, and A. Jiang

             Previous Authors, Complete List of Code Contributors,
                       and Citations for Specific Modules
    https://github.com/psi4/psi4/blob/master/codemeta.json
    https://github.com/psi4/psi4/graphs/contributors
    http://psicode.org/psi4manual/master/introduction.html#citing-psifour

    -----------------------------------------------------------------------


    Psi4 started on: Tuesday, 27 September 2022 09:28PM

    Process ID: 68284
    Host:       Liyangs-MBP
    PSIDATADIR: /opt/miniconda3/envs/qm-tools/share/psi4
    Memory:     476.8 MiB
    Threads:    1
    
  ==> Input QCSchema <==

--------------------------------------------------------------------------
{'driver': 'energy',
 'extras': {'psiapi': True, 'wfn_qcvars_only': True},
 'id': None,
 'keywords': {'function_kwargs': {}},
 'model': {'basis': 'aug-cc-pvdz', 'method': 'scf'},
 'molecule': {'atom_labels': ['1', '2', '3', '5', '6', '7'],
              'atomic_numbers': [8, 1, 1, 8, 1, 1],
              'fix_com': True,
              'fix_orientation': True,
              'fragment_charges': [0.0, 0.0],
              'fragment_multiplicities': [1, 1],
              'fragments': [[0, 1, 2], [3, 4, 5]],
              'geometry': [0.0511833892557548, 3.399508961950016, 0.0, 0.0511833892557548, 1.5097828364921886, 0.0,
                           -1.7781852282291912, 3.8732971958679467, 0.0, 0.0511833892557548, -3.214532477152382, 0.0,
                           0.0511833892557548, -4.159395539881295, 1.6365508308416188, 0.0511833892557548,
                           -4.159395539881295, -1.6365508308416188],
              'mass_numbers': [16, 1, 1, 16, 1, 1],
              'masses': [15.99491461957, 1.00782503223, 1.00782503223, 15.99491461957, 1.00782503223, 1.00782503223],
              'molecular_charge': 0.0,
              'molecular_multiplicity': 1,
              'name': 'H4O2',
              'provenance': {'creator': 'QCElemental',
                             'routine': 'qcelemental.molparse.from_string',
                             'version': 'v0.25.0'},
              'real': [False, False, False, True, True, True],
              'schema_name': 'qcschema_molecule',
              'schema_version': 2,
              'symbols': ['O', 'H', 'H', 'O', 'H', 'H'],
              'validated': True},
 'protocols': {'stdout': True},
 'provenance': {'creator': 'QCElemental', 'routine': 'qcelemental.models.results', 'version': 'v0.25.0'},
 'schema_name': 'qcschema_input',
 'schema_version': 1}
--------------------------------------------------------------------------

Scratch directory: /tmp/

*** tstart() called on Liyangs-MBP
*** at Tue Sep 27 21:44:01 2022

   => Loading Basis Set <=

    Name: AUG-CC-PVDZ
    Role: ORBITAL
    Keyword: BASIS
    atoms 1, 4     entry O          line   254 file /opt/miniconda3/envs/qm-tools/share/psi4/basis/aug-cc-pvdz.gbs 
    atoms 2-3, 5-6 entry H          line    40 file /opt/miniconda3/envs/qm-tools/share/psi4/basis/aug-cc-pvdz.gbs 


         ---------------------------------------------------------
                                   SCF
               by Justin Turney, Rob Parrish, Andy Simmonett
                          and Daniel G. A. Smith
                              RHF Reference
                        1 Threads,    476 MiB Core
         ---------------------------------------------------------

  ==> Geometry <==

    Molecular point group: cs
    Full point group: Cs

    Geometry (in Bohr), charge = 0, multiplicity = 1:

       Center              X                  Y                   Z               Mass       
    ------------   -----------------  -----------------  -----------------  -----------------
      Gh(O)           0.051183389256     3.399508961950     0.000000000000    15.994914619570
      Gh(H)           0.051183389256     1.509782836492     0.000000000000     1.007825032230
      Gh(H)          -1.778185228229     3.873297195868     0.000000000000     1.007825032230
         O            0.051183389256    -3.214532477152     0.000000000000    15.994914619570
         H            0.051183389256    -4.159395539881     1.636550830842     1.007825032230
         H            0.051183389256    -4.159395539881    -1.636550830842     1.007825032230

  Running in cs symmetry.

  Rotational constants: A =      7.04156  B =      0.14839  C =      0.14757 [cm^-1]
  Rotational constants: A = 211100.61013  B =   4448.52623  C =   4424.01414 [MHz]
  Nuclear repulsion =    8.772355975749342

  Charge       = 0
  Multiplicity = 1
  Electrons    = 10
  Nalpha       = 5
  Nbeta        = 5

  ==> Algorithm <==

  SCF Algorithm Type is DF.
  DIIS enabled.
  MOM disabled.
  Fractional occupation disabled.
  Guess Type is SAD.
  Energy threshold   = 1.00e-06
  Density threshold  = 1.00e-06
  Integral threshold = 1.00e-12

  ==> Primary Basis <==

  Basis Set: AUG-CC-PVDZ
    Blend: AUG-CC-PVDZ
    Number of shells: 38
    Number of basis functions: 82
    Number of Cartesian functions: 86
    Spherical Harmonics?: true
    Max angular momentum: 2

   => Loading Basis Set <=

    Name: (AUG-CC-PVDZ AUX)
    Role: JKFIT
    Keyword: DF_BASIS_SCF
    atoms 1, 4     entry O          line   270 file /opt/miniconda3/envs/qm-tools/share/psi4/basis/aug-cc-pvdz-jkfit.gbs 
    atoms 2-3, 5-6 entry H          line    70 file /opt/miniconda3/envs/qm-tools/share/psi4/basis/aug-cc-pvdz-jkfit.gbs 

  ==> Integral Setup <==

  DFHelper Memory: AOs need 0.017 GiB; user supplied 0.349 GiB. Using in-core AOs.

  ==> MemDFJK: Density-Fitted J/K Matrices <==

    J tasked:                   Yes
    K tasked:                   Yes
    wK tasked:                   No
    OpenMP threads:               1
    Memory [MiB]:               357
    Algorithm:                 Core
    Schwarz Cutoff:           1E-12
    Mask sparsity (%):       0.2082
    Fitting Condition:        1E-10

   => Auxiliary Basis Set <=

  Basis Set: (AUG-CC-PVDZ AUX)
    Blend: AUG-CC-PVDZ-JKFIT
    Number of shells: 104
    Number of basis functions: 300
    Number of Cartesian functions: 342
    Spherical Harmonics?: true
    Max angular momentum: 3

  Minimum eigenvalue in the overlap matrix is 2.3361201956E-03.
  Reciprocal condition number of the overlap matrix is 3.7713297943E-04.
    Using symmetric orthogonalization.

  ==> Pre-Iterations <==

  SCF Guess: Superposition of Atomic Densities via on-the-fly atomic UHF (no occupation information).

   -------------------------
    Irrep   Nso     Nmo    
   -------------------------
     A'        55      55 
     A"        27      27 
   -------------------------
    Total      82      82
   -------------------------

  ==> Iterations <==

                           Total Energy        Delta E     RMS |[F,P]|

   @DF-RHF iter SAD:   -75.40236297308370   -7.54024e+01   0.00000e+00 
   @DF-RHF iter   1:   -75.94506764038883   -5.42705e-01   7.36998e-03 ADIIS/DIIS
   @DF-RHF iter   2:   -75.99623948324705   -5.11718e-02   4.98914e-03 ADIIS/DIIS
   @DF-RHF iter   3:   -76.02930899567882   -3.30695e-02   3.82819e-04 ADIIS/DIIS
   @DF-RHF iter   4:   -76.02978954393794   -4.80548e-04   8.91810e-05 DIIS
   @DF-RHF iter   5:   -76.02982209857372   -3.25546e-05   2.18208e-05 DIIS
   @DF-RHF iter   6:   -76.02982517716239   -3.07859e-06   4.67246e-06 DIIS
   @DF-RHF iter   7:   -76.02982533151973   -1.54357e-07   8.55632e-07 DIIS
  Energy and wave function converged.


  ==> Post-Iterations <==

    Orbital Energies [Eh]
    ---------------------

    Doubly Occupied:                                                      

       1Ap   -20.575756     2Ap    -1.325875     1App   -0.721219  
       3Ap    -0.548267     4Ap    -0.500753  

    Virtual:                                                              

       5Ap     0.032820     6Ap     0.052600     2App    0.055968  
       7Ap     0.079474     8Ap     0.165117     3App    0.165947  
       9Ap     0.180825    10Ap     0.197408    11Ap     0.208981  
       4App    0.227912    12Ap     0.230852    13Ap     0.253319  
       5App    0.305877    14Ap     0.328425     6App    0.373618  
      15Ap     0.393856    16Ap     0.425289     7App    0.450872  
      17Ap     0.452217    18Ap     0.497914     8App    0.505255  
      19Ap     0.516776     9App    0.547351    20Ap     0.557177  
      21Ap     0.595091    22Ap     0.647227    10App    0.651552  
      23Ap     0.679022    11App    0.847241    24Ap     0.875722  
      25Ap     0.908517    12App    0.935823    26Ap     1.115871  
      27Ap     1.130379    13App    1.146311    28Ap     1.190846  
      29Ap     1.219509    30Ap     1.275455    14App    1.328849  
      31Ap     1.359261    15App    1.369920    32Ap     1.421459  
      33Ap     1.448752    34Ap     1.511900    16App    1.544760  
      35Ap     1.831423    17App    1.968417    36Ap     2.028623  
      37Ap     2.049356    18App    2.053967    38Ap     2.282459  
      19App    2.366609    20App    2.403425    39Ap     2.437752  
      21App    2.458935    40Ap     2.521735    41Ap     2.545274  
      42Ap     2.699561    22App    2.748656    43Ap     2.889859  
      44Ap     3.403481    45Ap     3.677018    23App    3.700789  
      46Ap     3.766769    47Ap     3.901607    48Ap     4.065787  
      49Ap     4.140725    24App    4.174131    25App    4.907201  
      50Ap     4.951266    26App    4.990512    51Ap     5.143858  
      52Ap     5.465177    27App    5.643090    53Ap     6.375610  
      54Ap     6.830743    55Ap    33.563430  

    Final Occupation by Irrep:
             Ap   App 
    DOCC [     4,    1 ]

  @DF-RHF Final Energy:   -76.02982533151973

   => Energetics <=

    Nuclear Repulsion Energy =              8.7723559757493419
    One-Electron Energy =                -122.2605852721334116
    Two-Electron Energy =                  37.4584039648643383
    Total Energy =                        -76.0298253315197314

Computation Completed


Properties will be evaluated at   0.000000,   0.000000,   0.000000 [a0]

Properties computed using the SCF density matrix


 Multipole Moments:

 ------------------------------------------------------------------------------------
     Multipole            Electronic (a.u.)      Nuclear  (a.u.)        Total (a.u.)
 ------------------------------------------------------------------------------------

 L = 1.  Multiply by 2.5417464519 to convert [e a0] to [Debye]
 Dipole X            :         -0.5117298            0.5118339            0.0001041
 Dipole Y            :         33.3473622          -34.0350509           -0.6876887
 Dipole Z            :          0.0000000            0.0000000            0.0000000
 Magnitude           :                                                    0.6876887

 ------------------------------------------------------------------------------------

*** tstop() called on Liyangs-MBP at Tue Sep 27 21:44:02 2022
Module time:
	user time   =       0.63 seconds =       0.01 minutes
	system time =       0.03 seconds =       0.00 minutes
	total time  =          1 seconds =       0.02 minutes
Total time:
	user time   =     536.93 seconds =       8.95 minutes
	system time =      34.15 seconds =       0.57 minutes
	total time  =        926 seconds =      15.43 minutes

    Psi4 stopped on: Tuesday, 27 September 2022 09:44PM
    Psi4 wall time for execution: 0:00:00.73


    -----------------------------------------------------------------------
          Psi4: An Open-Source Ab Initio Electronic Structure Package
                               Psi4 1.6.1 release

                         Git: Rev {HEAD} 5b9f6e3 


    D. G. A. Smith, L. A. Burns, A. C. Simmonett, R. M. Parrish,
    M. C. Schieber, R. Galvelis, P. Kraus, H. Kruse, R. Di Remigio,
    A. Alenaizan, A. M. James, S. Lehtola, J. P. Misiewicz, M. Scheurer,
    R. A. Shaw, J. B. Schriber, Y. Xie, Z. L. Glick, D. A. Sirianni,
    J. S. O'Brien, J. M. Waldrop, A. Kumar, E. G. Hohenstein,
    B. P. Pritchard, B. R. Brooks, H. F. Schaefer III, A. Yu. Sokolov,
    K. Patkowski, A. E. DePrince III, U. Bozkaya, R. A. King,
    F. A. Evangelista, J. M. Turney, T. D. Crawford, C. D. Sherrill,
    J. Chem. Phys. 152(18) 184108 (2020). https://doi.org/10.1063/5.0006002

                            Additional Code Authors
    E. T. Seidl, C. L. Janssen, E. F. Valeev, M. L. Leininger,
    J. F. Gonthier, R. M. Richard, H. R. McAlexander, M. Saitow, X. Wang,
    P. Verma, M. H. Lechner, and A. Jiang

             Previous Authors, Complete List of Code Contributors,
                       and Citations for Specific Modules
    https://github.com/psi4/psi4/blob/master/codemeta.json
    https://github.com/psi4/psi4/graphs/contributors
    http://psicode.org/psi4manual/master/introduction.html#citing-psifour

    -----------------------------------------------------------------------


    Psi4 started on: Tuesday, 27 September 2022 09:28PM

    Process ID: 68284
    Host:       Liyangs-MBP
    PSIDATADIR: /opt/miniconda3/envs/qm-tools/share/psi4
    Memory:     476.8 MiB
    Threads:    1
    
  ==> Input QCSchema <==

--------------------------------------------------------------------------
{'driver': 'energy',
 'extras': {'psiapi': True, 'wfn_qcvars_only': True},
 'id': None,
 'keywords': {'function_kwargs': {}},
 'model': {'basis': 'aug-cc-pvdz', 'method': 'scf'},
 'molecule': {'atom_labels': ['1', '2', '3', '5', '6', '7'],
              'atomic_numbers': [8, 1, 1, 8, 1, 1],
              'fix_com': True,
              'fix_orientation': True,
              'fragment_charges': [0.0, 0.0],
              'fragment_multiplicities': [1, 1],
              'fragments': [[0, 1, 2], [3, 4, 5]],
              'geometry': [0.0511833892557548, 3.399508961950016, 0.0, 0.0511833892557548, 1.5097828364921886, 0.0,
                           -1.7781852282291912, 3.8732971958679467, 0.0, 0.0511833892557548, -3.214532477152382, 0.0,
                           0.0511833892557548, -4.159395539881295, 1.6365508308416188, 0.0511833892557548,
                           -4.159395539881295, -1.6365508308416188],
              'mass_numbers': [16, 1, 1, 16, 1, 1],
              'masses': [15.99491461957, 1.00782503223, 1.00782503223, 15.99491461957, 1.00782503223, 1.00782503223],
              'molecular_charge': 0.0,
              'molecular_multiplicity': 1,
              'name': 'H4O2',
              'provenance': {'creator': 'QCElemental',
                             'routine': 'qcelemental.molparse.from_string',
                             'version': 'v0.25.0'},
              'real': [True, True, True, False, False, False],
              'schema_name': 'qcschema_molecule',
              'schema_version': 2,
              'symbols': ['O', 'H', 'H', 'O', 'H', 'H'],
              'validated': True},
 'protocols': {'stdout': True},
 'provenance': {'creator': 'QCElemental', 'routine': 'qcelemental.models.results', 'version': 'v0.25.0'},
 'schema_name': 'qcschema_input',
 'schema_version': 1}
--------------------------------------------------------------------------

Scratch directory: /tmp/

*** tstart() called on Liyangs-MBP
*** at Tue Sep 27 21:44:02 2022

   => Loading Basis Set <=

    Name: AUG-CC-PVDZ
    Role: ORBITAL
    Keyword: BASIS
    atoms 1, 4     entry O          line   254 file /opt/miniconda3/envs/qm-tools/share/psi4/basis/aug-cc-pvdz.gbs 
    atoms 2-3, 5-6 entry H          line    40 file /opt/miniconda3/envs/qm-tools/share/psi4/basis/aug-cc-pvdz.gbs 


         ---------------------------------------------------------
                                   SCF
               by Justin Turney, Rob Parrish, Andy Simmonett
                          and Daniel G. A. Smith
                              RHF Reference
                        1 Threads,    476 MiB Core
         ---------------------------------------------------------

  ==> Geometry <==

    Molecular point group: cs
    Full point group: Cs

    Geometry (in Bohr), charge = 0, multiplicity = 1:

       Center              X                  Y                   Z               Mass       
    ------------   -----------------  -----------------  -----------------  -----------------
         O            0.051183389256     3.399508961950     0.000000000000    15.994914619570
         H            0.051183389256     1.509782836492     0.000000000000     1.007825032230
         H           -1.778185228229     3.873297195868     0.000000000000     1.007825032230
      Gh(O)           0.051183389256    -3.214532477152     0.000000000000    15.994914619570
      Gh(H)           0.051183389256    -4.159395539881     1.636550830842     1.007825032230
      Gh(H)           0.051183389256    -4.159395539881    -1.636550830842     1.007825032230

  Running in cs symmetry.

  Rotational constants: A =      7.04156  B =      0.14839  C =      0.14757 [cm^-1]
  Rotational constants: A = 211100.61013  B =   4448.52623  C =   4424.01414 [MHz]
  Nuclear repulsion =    8.801420354575152

  Charge       = 0
  Multiplicity = 1
  Electrons    = 10
  Nalpha       = 5
  Nbeta        = 5

  ==> Algorithm <==

  SCF Algorithm Type is DF.
  DIIS enabled.
  MOM disabled.
  Fractional occupation disabled.
  Guess Type is SAD.
  Energy threshold   = 1.00e-06
  Density threshold  = 1.00e-06
  Integral threshold = 1.00e-12

  ==> Primary Basis <==

  Basis Set: AUG-CC-PVDZ
    Blend: AUG-CC-PVDZ
    Number of shells: 38
    Number of basis functions: 82
    Number of Cartesian functions: 86
    Spherical Harmonics?: true
    Max angular momentum: 2

   => Loading Basis Set <=

    Name: (AUG-CC-PVDZ AUX)
    Role: JKFIT
    Keyword: DF_BASIS_SCF
    atoms 1, 4     entry O          line   270 file /opt/miniconda3/envs/qm-tools/share/psi4/basis/aug-cc-pvdz-jkfit.gbs 
    atoms 2-3, 5-6 entry H          line    70 file /opt/miniconda3/envs/qm-tools/share/psi4/basis/aug-cc-pvdz-jkfit.gbs 

  ==> Integral Setup <==

  DFHelper Memory: AOs need 0.017 GiB; user supplied 0.349 GiB. Using in-core AOs.

  ==> MemDFJK: Density-Fitted J/K Matrices <==

    J tasked:                   Yes
    K tasked:                   Yes
    wK tasked:                   No
    OpenMP threads:               1
    Memory [MiB]:               357
    Algorithm:                 Core
    Schwarz Cutoff:           1E-12
    Mask sparsity (%):       0.2082
    Fitting Condition:        1E-10

   => Auxiliary Basis Set <=

  Basis Set: (AUG-CC-PVDZ AUX)
    Blend: AUG-CC-PVDZ-JKFIT
    Number of shells: 104
    Number of basis functions: 300
    Number of Cartesian functions: 342
    Spherical Harmonics?: true
    Max angular momentum: 3

  Minimum eigenvalue in the overlap matrix is 2.3361201956E-03.
  Reciprocal condition number of the overlap matrix is 3.7713297943E-04.
    Using symmetric orthogonalization.

  ==> Pre-Iterations <==

  SCF Guess: Superposition of Atomic Densities via on-the-fly atomic UHF (no occupation information).

   -------------------------
    Irrep   Nso     Nmo    
   -------------------------
     A'        55      55 
     A"        27      27 
   -------------------------
    Total      82      82
   -------------------------

  ==> Iterations <==

                           Total Energy        Delta E     RMS |[F,P]|

   @DF-RHF iter SAD:   -75.41487093615835   -7.54149e+01   0.00000e+00 
   @DF-RHF iter   1:   -75.94940405709004   -5.34533e-01   7.36747e-03 ADIIS/DIIS
   @DF-RHF iter   2:   -76.00127930773571   -5.18753e-02   5.05080e-03 ADIIS/DIIS
   @DF-RHF iter   3:   -76.03521879878110   -3.39395e-02   3.84932e-04 ADIIS/DIIS
   @DF-RHF iter   4:   -76.03568166721567   -4.62868e-04   8.82406e-05 DIIS
   @DF-RHF iter   5:   -76.03571179134207   -3.01241e-05   2.09343e-05 DIIS
   @DF-RHF iter   6:   -76.03571436750443   -2.57616e-06   4.13507e-06 DIIS
   @DF-RHF iter   7:   -76.03571447071391   -1.03209e-07   6.73449e-07 DIIS
  Energy and wave function converged.


  ==> Post-Iterations <==

    Orbital Energies [Eh]
    ---------------------

    Doubly Occupied:                                                      

       1Ap   -20.584255     2Ap    -1.335644     3Ap    -0.696509  
       4Ap    -0.577387     1App   -0.506091  

    Virtual:                                                              

       5Ap     0.024535     6Ap     0.049148     2App    0.057877  
       7Ap     0.076558     8Ap     0.134031     9Ap     0.150860  
      10Ap     0.182438     3App    0.184442     4App    0.217638  
      11Ap     0.219537    12Ap     0.228717    13Ap     0.261502  
      14Ap     0.318360     5App    0.357825    15Ap     0.362668  
      16Ap     0.377266     6App    0.406110     7App    0.418842  
      17Ap     0.422835    18Ap     0.456358    19Ap     0.487889  
       8App    0.494949    20Ap     0.523060     9App    0.529866  
      21Ap     0.551606    10App    0.601720    22Ap     0.645211  
      23Ap     0.717159    24Ap     0.804226    25Ap     0.897502  
      26Ap     0.941429    27Ap     1.016541    11App    1.103962  
      28Ap     1.138224    12App    1.164326    29Ap     1.183408  
      13App    1.201738    30Ap     1.269330    31Ap     1.291509  
      14App    1.292860    32Ap     1.322943    15App    1.336891  
      33Ap     1.416013    34Ap     1.482229    16App    1.530257  
      35Ap     1.657824    36Ap     1.986182    17App    1.990161  
      37Ap     2.059680    18App    2.082611    19App    2.328281  
      38Ap     2.356472    20App    2.370387    21App    2.382665  
      39Ap     2.393459    40Ap     2.432445    41Ap     2.640085  
      42Ap     2.730277    43Ap     2.782754    44Ap     2.980153  
      45Ap     3.374432    22App    3.673420    46Ap     3.697608  
      23App    3.716169    47Ap     3.898383    24App    3.921683  
      48Ap     4.015009    49Ap     4.240179    50Ap     4.871585  
      25App    4.944876    51Ap     4.993867    52Ap     5.288638  
      26App    5.326009    53Ap     5.575417    54Ap     6.258792  
      27App    6.813381    55Ap    33.527866  

    Final Occupation by Irrep:
             Ap   App 
    DOCC [     4,    1 ]

  @DF-RHF Final Energy:   -76.03571447071391

   => Energetics <=

    Nuclear Repulsion Energy =              8.8014203545751517
    One-Electron Energy =                -122.2744765825729019
    Two-Electron Energy =                  37.4373417572838321
    Total Energy =                        -76.0357144707139128

Computation Completed


Properties will be evaluated at   0.000000,   0.000000,   0.000000 [a0]

Properties computed using the SCF density matrix


 Multipole Moments:

 ------------------------------------------------------------------------------------
     Multipole            Electronic (a.u.)      Nuclear  (a.u.)        Total (a.u.)
 ------------------------------------------------------------------------------------

 L = 1.  Multiply by 2.5417464519 to convert [e a0] to [Debye]
 Dipole X            :          0.6852470           -1.3175347           -0.6322877
 Dipole Y            :        -33.0684855           32.5791517           -0.4893338
 Dipole Z            :          0.0000000            0.0000000            0.0000000
 Magnitude           :                                                    0.7995219

 ------------------------------------------------------------------------------------

*** tstop() called on Liyangs-MBP at Tue Sep 27 21:44:02 2022
Module time:
	user time   =       0.62 seconds =       0.01 minutes
	system time =       0.03 seconds =       0.00 minutes
	total time  =          0 seconds =       0.00 minutes
Total time:
	user time   =     537.62 seconds =       8.96 minutes
	system time =      34.19 seconds =       0.57 minutes
	total time  =        926 seconds =      15.43 minutes

    Psi4 stopped on: Tuesday, 27 September 2022 09:44PM
    Psi4 wall time for execution: 0:00:00.72


    -----------------------------------------------------------------------
          Psi4: An Open-Source Ab Initio Electronic Structure Package
                               Psi4 1.6.1 release

                         Git: Rev {HEAD} 5b9f6e3 


    D. G. A. Smith, L. A. Burns, A. C. Simmonett, R. M. Parrish,
    M. C. Schieber, R. Galvelis, P. Kraus, H. Kruse, R. Di Remigio,
    A. Alenaizan, A. M. James, S. Lehtola, J. P. Misiewicz, M. Scheurer,
    R. A. Shaw, J. B. Schriber, Y. Xie, Z. L. Glick, D. A. Sirianni,
    J. S. O'Brien, J. M. Waldrop, A. Kumar, E. G. Hohenstein,
    B. P. Pritchard, B. R. Brooks, H. F. Schaefer III, A. Yu. Sokolov,
    K. Patkowski, A. E. DePrince III, U. Bozkaya, R. A. King,
    F. A. Evangelista, J. M. Turney, T. D. Crawford, C. D. Sherrill,
    J. Chem. Phys. 152(18) 184108 (2020). https://doi.org/10.1063/5.0006002

                            Additional Code Authors
    E. T. Seidl, C. L. Janssen, E. F. Valeev, M. L. Leininger,
    J. F. Gonthier, R. M. Richard, H. R. McAlexander, M. Saitow, X. Wang,
    P. Verma, M. H. Lechner, and A. Jiang

             Previous Authors, Complete List of Code Contributors,
                       and Citations for Specific Modules
    https://github.com/psi4/psi4/blob/master/codemeta.json
    https://github.com/psi4/psi4/graphs/contributors
    http://psicode.org/psi4manual/master/introduction.html#citing-psifour

    -----------------------------------------------------------------------


    Psi4 started on: Tuesday, 27 September 2022 09:28PM

    Process ID: 68284
    Host:       Liyangs-MBP
    PSIDATADIR: /opt/miniconda3/envs/qm-tools/share/psi4
    Memory:     476.8 MiB
    Threads:    1
    
  ==> Input QCSchema <==

--------------------------------------------------------------------------
{'driver': 'energy',
 'extras': {'psiapi': True, 'wfn_qcvars_only': True},
 'id': None,
 'keywords': {'function_kwargs': {}},
 'model': {'basis': 'aug-cc-pvdz', 'method': 'scf'},
 'molecule': {'atom_labels': ['1', '2', '3', '5', '6', '7'],
              'atomic_numbers': [8, 1, 1, 8, 1, 1],
              'fix_com': True,
              'fix_orientation': True,
              'fragment_charges': [0.0, 0.0],
              'fragment_multiplicities': [1, 1],
              'fragments': [[0, 1, 2], [3, 4, 5]],
              'geometry': [0.0511833892557548, 3.399508961950016, 0.0, 0.0511833892557548, 1.5097828364921886, 0.0,
                           -1.7781852282291912, 3.8732971958679467, 0.0, 0.0511833892557548, -3.214532477152382, 0.0,
                           0.0511833892557548, -4.159395539881295, 1.6365508308416188, 0.0511833892557548,
                           -4.159395539881295, -1.6365508308416188],
              'mass_numbers': [16, 1, 1, 16, 1, 1],
              'masses': [15.99491461957, 1.00782503223, 1.00782503223, 15.99491461957, 1.00782503223, 1.00782503223],
              'molecular_charge': 0.0,
              'molecular_multiplicity': 1,
              'name': 'H4O2',
              'provenance': {'creator': 'QCElemental',
                             'routine': 'qcelemental.molparse.from_string',
                             'version': 'v0.25.0'},
              'real': [True, True, True, True, True, True],
              'schema_name': 'qcschema_molecule',
              'schema_version': 2,
              'symbols': ['O', 'H', 'H', 'O', 'H', 'H'],
              'validated': True},
 'protocols': {'stdout': True},
 'provenance': {'creator': 'QCElemental', 'routine': 'qcelemental.models.results', 'version': 'v0.25.0'},
 'schema_name': 'qcschema_input',
 'schema_version': 1}
--------------------------------------------------------------------------

Scratch directory: /tmp/

*** tstart() called on Liyangs-MBP
*** at Tue Sep 27 21:44:02 2022

   => Loading Basis Set <=

    Name: AUG-CC-PVDZ
    Role: ORBITAL
    Keyword: BASIS
    atoms 1, 4     entry O          line   254 file /opt/miniconda3/envs/qm-tools/share/psi4/basis/aug-cc-pvdz.gbs 
    atoms 2-3, 5-6 entry H          line    40 file /opt/miniconda3/envs/qm-tools/share/psi4/basis/aug-cc-pvdz.gbs 


         ---------------------------------------------------------
                                   SCF
               by Justin Turney, Rob Parrish, Andy Simmonett
                          and Daniel G. A. Smith
                              RHF Reference
                        1 Threads,    476 MiB Core
         ---------------------------------------------------------

  ==> Geometry <==

    Molecular point group: cs
    Full point group: Cs

    Geometry (in Bohr), charge = 0, multiplicity = 1:

       Center              X                  Y                   Z               Mass       
    ------------   -----------------  -----------------  -----------------  -----------------
         O            0.051183389256     3.399508961950     0.000000000000    15.994914619570
         H            0.051183389256     1.509782836492     0.000000000000     1.007825032230
         H           -1.778185228229     3.873297195868     0.000000000000     1.007825032230
         O            0.051183389256    -3.214532477152     0.000000000000    15.994914619570
         H            0.051183389256    -4.159395539881     1.636550830842     1.007825032230
         H            0.051183389256    -4.159395539881    -1.636550830842     1.007825032230

  Running in cs symmetry.

  Rotational constants: A =      7.04156  B =      0.14839  C =      0.14757 [cm^-1]
  Rotational constants: A = 211100.61013  B =   4448.52623  C =   4424.01414 [MHz]
  Nuclear repulsion =   32.682242924204417

  Charge       = 0
  Multiplicity = 1
  Electrons    = 20
  Nalpha       = 10
  Nbeta        = 10

  ==> Algorithm <==

  SCF Algorithm Type is DF.
  DIIS enabled.
  MOM disabled.
  Fractional occupation disabled.
  Guess Type is SAD.
  Energy threshold   = 1.00e-06
  Density threshold  = 1.00e-06
  Integral threshold = 1.00e-12

  ==> Primary Basis <==

  Basis Set: AUG-CC-PVDZ
    Blend: AUG-CC-PVDZ
    Number of shells: 38
    Number of basis functions: 82
    Number of Cartesian functions: 86
    Spherical Harmonics?: true
    Max angular momentum: 2

   => Loading Basis Set <=

    Name: (AUG-CC-PVDZ AUX)
    Role: JKFIT
    Keyword: DF_BASIS_SCF
    atoms 1, 4     entry O          line   270 file /opt/miniconda3/envs/qm-tools/share/psi4/basis/aug-cc-pvdz-jkfit.gbs 
    atoms 2-3, 5-6 entry H          line    70 file /opt/miniconda3/envs/qm-tools/share/psi4/basis/aug-cc-pvdz-jkfit.gbs 

  ==> Integral Setup <==

  DFHelper Memory: AOs need 0.017 GiB; user supplied 0.349 GiB. Using in-core AOs.

  ==> MemDFJK: Density-Fitted J/K Matrices <==

    J tasked:                   Yes
    K tasked:                   Yes
    wK tasked:                   No
    OpenMP threads:               1
    Memory [MiB]:               357
    Algorithm:                 Core
    Schwarz Cutoff:           1E-12
    Mask sparsity (%):       0.2082
    Fitting Condition:        1E-10

   => Auxiliary Basis Set <=

  Basis Set: (AUG-CC-PVDZ AUX)
    Blend: AUG-CC-PVDZ-JKFIT
    Number of shells: 104
    Number of basis functions: 300
    Number of Cartesian functions: 342
    Spherical Harmonics?: true
    Max angular momentum: 3

  Minimum eigenvalue in the overlap matrix is 2.3361201956E-03.
  Reciprocal condition number of the overlap matrix is 3.7713297943E-04.
    Using symmetric orthogonalization.

  ==> Pre-Iterations <==

  SCF Guess: Superposition of Atomic Densities via on-the-fly atomic UHF (no occupation information).

   -------------------------
    Irrep   Nso     Nmo    
   -------------------------
     A'        55      55 
     A"        27      27 
   -------------------------
    Total      82      82
   -------------------------

  ==> Iterations <==

                           Total Energy        Delta E     RMS |[F,P]|

   @DF-RHF iter SAD:  -150.83944088473737   -1.50839e+02   0.00000e+00 
   @DF-RHF iter   1:  -151.90710820494309   -1.06767e+00   1.02255e-02 ADIIS/DIIS
   @DF-RHF iter   2:  -152.00762719112322   -1.00519e-01   6.84280e-03 ADIIS/DIIS
   @DF-RHF iter   3:  -152.06963372763474   -6.20065e-02   5.64762e-04 ADIIS/DIIS
   @DF-RHF iter   4:  -152.07059933592686   -9.65608e-04   1.20342e-04 ADIIS/DIIS
   @DF-RHF iter   5:  -152.07065659502220   -5.72591e-05   3.22266e-05 DIIS
   @DF-RHF iter   6:  -152.07066186427215   -5.26925e-06   1.33984e-05 DIIS
   @DF-RHF iter   7:  -152.07066234576175   -4.81490e-07   3.67755e-06 DIIS
   @DF-RHF iter   8:  -152.07066241452958   -6.87678e-08   5.88997e-07 DIIS
  Energy and wave function converged.


  ==> Post-Iterations <==

    Orbital Energies [Eh]
    ---------------------

    Doubly Occupied:                                                      

       1Ap   -20.592813     2Ap   -20.562555     3Ap    -1.343456  
       4Ap    -1.314784     1App   -0.738159     5Ap    -0.676320  
       6Ap    -0.572023     7Ap    -0.553635     8Ap    -0.518435  
       2App   -0.485625  

    Virtual:                                                              

       9Ap     0.027230     3App    0.052098    10Ap     0.053963  
      11Ap     0.086936    12Ap     0.174794    13Ap     0.186132  
       4App    0.201428    14Ap     0.206298     5App    0.224830  
      15Ap     0.234669    16Ap     0.244750    17Ap     0.273937  
       6App    0.294135    18Ap     0.303727    19Ap     0.338882  
       7App    0.362823    20Ap     0.389077     8App    0.420154  
      21Ap     0.429146    22Ap     0.486084     9App    0.486529  
      23Ap     0.525860    10App    0.544072    24Ap     0.578439  
      25Ap     0.627847    11App    0.640181    26Ap     0.660480  
      27Ap     0.763550    12App    0.832101    28Ap     0.852390  
      29Ap     0.877787    30Ap     0.956416    31Ap     1.086523  
      13App    1.127280    14App    1.130355    32Ap     1.177001  
      15App    1.189494    33Ap     1.220729    34Ap     1.335440  
      35Ap     1.418798    16App    1.449535    36Ap     1.480964  
      37Ap     1.495111    17App    1.593655    38Ap     1.594156  
      39Ap     1.802960    18App    1.951165    40Ap     2.006530  
      19App    2.010854    41Ap     2.034748    20App    2.038297  
      21App    2.104584    42Ap     2.373672    22App    2.395140  
      43Ap     2.415053    44Ap     2.456868    45Ap     2.519580  
      46Ap     2.689381    23App    2.730036    47Ap     2.760471  
      48Ap     2.880918    49Ap     3.001531    50Ap     3.651757  
      24App    3.683511    25App    3.695042    51Ap     3.725909  
      52Ap     3.735979    26App    3.743564    53Ap     4.031837  
      54Ap     4.121672    27App    4.160219    55Ap     4.265981  

    Final Occupation by Irrep:
             Ap   App 
    DOCC [     8,    2 ]

  @DF-RHF Final Energy:  -152.07066241452958

   => Energetics <=

    Nuclear Repulsion Energy =             32.6822429242044166
    One-Electron Energy =                -274.7901745985649313
    Two-Electron Energy =                  90.0372692598309357
    Total Energy =                       -152.0706624145295791

Computation Completed


Properties will be evaluated at   0.000000,   0.000000,   0.000000 [a0]

Properties computed using the SCF density matrix


 Multipole Moments:

 ------------------------------------------------------------------------------------
     Multipole            Electronic (a.u.)      Nuclear  (a.u.)        Total (a.u.)
 ------------------------------------------------------------------------------------

 L = 1.  Multiply by 2.5417464519 to convert [e a0] to [Debye]
 Dipole X            :          0.1885821           -0.8057008           -0.6171187
 Dipole Y            :          0.1469842           -1.4558992           -1.3089150
 Dipole Z            :          0.0000000            0.0000000            0.0000000
 Magnitude           :                                                    1.4470985

 ------------------------------------------------------------------------------------

*** tstop() called on Liyangs-MBP at Tue Sep 27 21:44:03 2022
Module time:
	user time   =       0.64 seconds =       0.01 minutes
	system time =       0.03 seconds =       0.00 minutes
	total time  =          1 seconds =       0.02 minutes
Total time:
	user time   =     538.33 seconds =       8.97 minutes
	system time =      34.23 seconds =       0.57 minutes
	total time  =        927 seconds =      15.45 minutes

    Psi4 stopped on: Tuesday, 27 September 2022 09:44PM
    Psi4 wall time for execution: 0:00:00.74


  //>>>>>>>>>>>>>>>>>>>>>>>>>>>>>>>>>>>//
  //          ManyBody Results         //
  //<<<<<<<<<<<<<<<<<<<<<<<<<<<<<<<<<<<//


   ==> N-Body: Counterpoise Corrected (CP) energies <==

        n-Body     Total Energy            Interaction Energy                          N-body Contribution to Interaction Energy
                   [Eh]                    [Eh]                  [kcal/mol]            [Eh]                  [kcal/mol]
             1  N/A                         0.000000000000        0.000000000000        0.000000000000        0.000000000000
  FULL/RTN   2  N/A                        -0.005122612296       -3.214487746188       -0.005122612296       -3.214487746188

