
Scratch directory: /tmp/

  //>>>>>>>>>>>>>>>>>>>>>>>>>>>>>>>>>>>>>//
  // ManyBody Setup: N-Body Levels [1, 2]//
  //<<<<<<<<<<<<<<<<<<<<<<<<<<<<<<<<<<<<<//

        Number of 1-body computations:     2
        Number of 2-body computations:     1

    -----------------------------------------------------------------------
          Psi4: An Open-Source Ab Initio Electronic Structure Package
                               Psi4 1.6.1 release

                         Git: Rev {HEAD} 5b9f6e3 


    D. G. A. Smith, L. A. Burns, A. C. Simmonett, R. M. Parrish,
    M. C. Schieber, R. Galvelis, P. Kraus, H. Kruse, R. Di Remigio,
    A. Alenaizan, A. M. James, S. Lehtola, J. P. Misiewicz, M. Scheurer,
    R. A. Shaw, J. B. Schriber, Y. Xie, Z. L. Glick, D. A. Sirianni,
    J. S. O'Brien, J. M. Waldrop, A. Kumar, E. G. Hohenstein,
    B. P. Pritchard, B. R. Brooks, H. F. Schaefer III, A. Yu. Sokolov,
    K. Patkowski, A. E. DePrince III, U. Bozkaya, R. A. King,
    F. A. Evangelista, J. M. Turney, T. D. Crawford, C. D. Sherrill,
    J. Chem. Phys. 152(18) 184108 (2020). https://doi.org/10.1063/5.0006002

                            Additional Code Authors
    E. T. Seidl, C. L. Janssen, E. F. Valeev, M. L. Leininger,
    J. F. Gonthier, R. M. Richard, H. R. McAlexander, M. Saitow, X. Wang,
    P. Verma, M. H. Lechner, and A. Jiang

             Previous Authors, Complete List of Code Contributors,
                       and Citations for Specific Modules
    https://github.com/psi4/psi4/blob/master/codemeta.json
    https://github.com/psi4/psi4/graphs/contributors
    http://psicode.org/psi4manual/master/introduction.html#citing-psifour

    -----------------------------------------------------------------------


    Psi4 started on: Tuesday, 27 September 2022 09:28PM

    Process ID: 68284
    Host:       Liyangs-MBP
    PSIDATADIR: /opt/miniconda3/envs/qm-tools/share/psi4
    Memory:     476.8 MiB
    Threads:    1
    
  ==> Input QCSchema <==

--------------------------------------------------------------------------
{'driver': 'energy',
 'extras': {'psiapi': True, 'wfn_qcvars_only': True},
 'id': None,
 'keywords': {'function_kwargs': {}},
 'model': {'basis': 'aug-cc-pvdz', 'method': 'scf'},
 'molecule': {'atom_labels': ['1', '2', '3', '5', '6', '7'],
              'atomic_numbers': [8, 1, 1, 8, 1, 1],
              'fix_com': True,
              'fix_orientation': True,
              'fragment_charges': [0.0, 0.0],
              'fragment_multiplicities': [1, 1],
              'fragments': [[0, 1, 2], [3, 4, 5]],
              'geometry': [4.9314301649168976e-17, -0.051183389255754747, -3.3050226556771247, 4.9314301649168976e-17,
                           -0.051183389255754747, -1.4152965302192972, 4.9314301649168976e-17, 1.7781852282291912,
                           -3.7788108895950563, 4.9314301649168976e-17, -0.051183389255754747, 3.120046170879491,
                           -1.5807867135447526, -0.47475391255592025, 4.064909233608404, 1.5807867135447509,
                           0.37238713404440865, 4.064909233608405],
              'mass_numbers': [16, 1, 1, 16, 1, 1],
              'masses': [15.99491461957, 1.00782503223, 1.00782503223, 15.99491461957, 1.00782503223, 1.00782503223],
              'molecular_charge': 0.0,
              'molecular_multiplicity': 1,
              'name': 'H4O2',
              'provenance': {'creator': 'QCElemental',
                             'routine': 'qcelemental.molparse.from_string',
                             'version': 'v0.25.0'},
              'real': [False, False, False, True, True, True],
              'schema_name': 'qcschema_molecule',
              'schema_version': 2,
              'symbols': ['O', 'H', 'H', 'O', 'H', 'H'],
              'validated': True},
 'protocols': {'stdout': True},
 'provenance': {'creator': 'QCElemental', 'routine': 'qcelemental.models.results', 'version': 'v0.25.0'},
 'schema_name': 'qcschema_input',
 'schema_version': 1}
--------------------------------------------------------------------------

Scratch directory: /tmp/

*** tstart() called on Liyangs-MBP
*** at Tue Sep 27 21:42:33 2022

   => Loading Basis Set <=

    Name: AUG-CC-PVDZ
    Role: ORBITAL
    Keyword: BASIS
    atoms 1, 4     entry O          line   254 file /opt/miniconda3/envs/qm-tools/share/psi4/basis/aug-cc-pvdz.gbs 
    atoms 2-3, 5-6 entry H          line    40 file /opt/miniconda3/envs/qm-tools/share/psi4/basis/aug-cc-pvdz.gbs 


         ---------------------------------------------------------
                                   SCF
               by Justin Turney, Rob Parrish, Andy Simmonett
                          and Daniel G. A. Smith
                              RHF Reference
                        1 Threads,    476 MiB Core
         ---------------------------------------------------------

  ==> Geometry <==

    Molecular point group: c1
    Full point group: C1

    Geometry (in Bohr), charge = 0, multiplicity = 1:

       Center              X                  Y                   Z               Mass       
    ------------   -----------------  -----------------  -----------------  -----------------
      Gh(O)           0.000000000000    -0.051183389256    -3.305022655677    15.994914619570
      Gh(H)           0.000000000000    -0.051183389256    -1.415296530219     1.007825032230
      Gh(H)           0.000000000000     1.778185228229    -3.778810889595     1.007825032230
         O            0.000000000000    -0.051183389256     3.120046170879    15.994914619570
         H           -1.580786713545    -0.474753912556     4.064909233608     1.007825032230
         H            1.580786713545     0.372387134044     4.064909233608     1.007825032230

  Running in c1 symmetry.

  Rotational constants: A =      7.04251  B =      0.15718  C =      0.15592 [cm^-1]
  Rotational constants: A = 211129.11006  B =   4712.25332  C =   4674.41499 [MHz]
  Nuclear repulsion =    8.772355975749340

  Charge       = 0
  Multiplicity = 1
  Electrons    = 10
  Nalpha       = 5
  Nbeta        = 5

  ==> Algorithm <==

  SCF Algorithm Type is DF.
  DIIS enabled.
  MOM disabled.
  Fractional occupation disabled.
  Guess Type is SAD.
  Energy threshold   = 1.00e-06
  Density threshold  = 1.00e-06
  Integral threshold = 1.00e-12

  ==> Primary Basis <==

  Basis Set: AUG-CC-PVDZ
    Blend: AUG-CC-PVDZ
    Number of shells: 38
    Number of basis functions: 82
    Number of Cartesian functions: 86
    Spherical Harmonics?: true
    Max angular momentum: 2

   => Loading Basis Set <=

    Name: (AUG-CC-PVDZ AUX)
    Role: JKFIT
    Keyword: DF_BASIS_SCF
    atoms 1, 4     entry O          line   270 file /opt/miniconda3/envs/qm-tools/share/psi4/basis/aug-cc-pvdz-jkfit.gbs 
    atoms 2-3, 5-6 entry H          line    70 file /opt/miniconda3/envs/qm-tools/share/psi4/basis/aug-cc-pvdz-jkfit.gbs 

  ==> Integral Setup <==

  DFHelper Memory: AOs need 0.017 GiB; user supplied 0.349 GiB. Using in-core AOs.

  ==> MemDFJK: Density-Fitted J/K Matrices <==

    J tasked:                   Yes
    K tasked:                   Yes
    wK tasked:                   No
    OpenMP threads:               1
    Memory [MiB]:               357
    Algorithm:                 Core
    Schwarz Cutoff:           1E-12
    Mask sparsity (%):       0.0892
    Fitting Condition:        1E-10

   => Auxiliary Basis Set <=

  Basis Set: (AUG-CC-PVDZ AUX)
    Blend: AUG-CC-PVDZ-JKFIT
    Number of shells: 104
    Number of basis functions: 300
    Number of Cartesian functions: 342
    Spherical Harmonics?: true
    Max angular momentum: 3

  Minimum eigenvalue in the overlap matrix is 2.2822452786E-03.
  Reciprocal condition number of the overlap matrix is 3.3346106544E-04.
    Using symmetric orthogonalization.

  ==> Pre-Iterations <==

  SCF Guess: Superposition of Atomic Densities via on-the-fly atomic UHF (no occupation information).

   -------------------------
    Irrep   Nso     Nmo    
   -------------------------
     A         82      82 
   -------------------------
    Total      82      82
   -------------------------

  ==> Iterations <==

                           Total Energy        Delta E     RMS |[F,P]|

   @DF-RHF iter SAD:   -75.40236292911239   -7.54024e+01   0.00000e+00 
   @DF-RHF iter   1:   -75.94507315272151   -5.42710e-01   5.50730e-03 ADIIS/DIIS
   @DF-RHF iter   2:   -75.99624879799505   -5.11756e-02   3.72862e-03 ADIIS/DIIS
   @DF-RHF iter   3:   -76.02933226839572   -3.30835e-02   2.79192e-04 ADIIS/DIIS
   @DF-RHF iter   4:   -76.02980327797133   -4.71010e-04   6.67366e-05 DIIS
   @DF-RHF iter   5:   -76.02983586389618   -3.25859e-05   1.62914e-05 DIIS
   @DF-RHF iter   6:   -76.02983893694395   -3.07305e-06   3.49445e-06 DIIS
   @DF-RHF iter   7:   -76.02983909162650   -1.54683e-07   6.40922e-07 DIIS
  Energy and wave function converged.


  ==> Post-Iterations <==

    Orbital Energies [Eh]
    ---------------------

    Doubly Occupied:                                                      

       1A    -20.575759     2A     -1.325866     3A     -0.721212  
       4A     -0.548261     5A     -0.500735  

    Virtual:                                                              

       6A      0.032764     7A      0.052961     8A      0.055899  
       9A      0.079856    10A      0.164751    11A      0.167616  
      12A      0.181038    13A      0.197409    14A      0.209875  
      15A      0.226587    16A      0.232930    17A      0.253309  
      18A      0.307909    19A      0.328362    20A      0.373131  
      21A      0.395544    22A      0.427108    23A      0.451336  
      24A      0.454439    25A      0.497770    26A      0.511158  
      27A      0.521331    28A      0.546377    29A      0.559112  
      30A      0.599096    31A      0.647443    32A      0.653793  
      33A      0.685940    34A      0.849387    35A      0.876278  
      36A      0.914554    37A      0.937805    38A      1.118990  
      39A      1.140960    40A      1.146338    41A      1.194050  
      42A      1.229579    43A      1.276906    44A      1.330493  
      45A      1.358083    46A      1.375080    47A      1.423512  
      48A      1.452905    49A      1.519599    50A      1.553379  
      51A      1.866778    52A      1.974268    53A      2.031522  
      54A      2.049537    55A      2.054838    56A      2.274398  
      57A      2.366848    58A      2.404444    59A      2.440790  
      60A      2.462015    61A      2.521340    62A      2.552776  
      63A      2.701071    64A      2.759808    65A      2.898507  
      66A      3.412213    67A      3.682747    68A      3.700815  
      69A      3.775274    70A      3.902358    71A      4.069388  
      72A      4.142117    73A      4.176766    74A      4.908441  
      75A      4.953011    76A      4.993079    77A      5.150912  
      78A      5.471334    79A      5.649703    80A      6.384518  
      81A      6.833299    82A     33.564908  

    Final Occupation by Irrep:
              A 
    DOCC [     5 ]

  @DF-RHF Final Energy:   -76.02983909162650

   => Energetics <=

    Nuclear Repulsion Energy =              8.7723559757493401
    One-Electron Energy =                -122.2606877129826870
    Two-Electron Energy =                  37.4584926456068459
    Total Energy =                        -76.0298390916265134

Computation Completed


Properties will be evaluated at   0.000000,   0.000000,   0.000000 [a0]

Properties computed using the SCF density matrix


 Multipole Moments:

 ------------------------------------------------------------------------------------
     Multipole            Electronic (a.u.)      Nuclear  (a.u.)        Total (a.u.)
 ------------------------------------------------------------------------------------

 L = 1.  Multiply by 2.5417464519 to convert [e a0] to [Debye]
 Dipole X            :          0.0000404           -0.0000000            0.0000404
 Dipole Y            :          0.5116966           -0.5118339           -0.0001372
 Dipole Z            :        -32.4029223           33.0901878            0.6872656
 Magnitude           :                                                    0.6872656

 ------------------------------------------------------------------------------------

*** tstop() called on Liyangs-MBP at Tue Sep 27 21:42:33 2022
Module time:
	user time   =       0.63 seconds =       0.01 minutes
	system time =       0.04 seconds =       0.00 minutes
	total time  =          0 seconds =       0.00 minutes
Total time:
	user time   =     455.21 seconds =       7.59 minutes
	system time =      28.62 seconds =       0.48 minutes
	total time  =        837 seconds =      13.95 minutes

    Psi4 stopped on: Tuesday, 27 September 2022 09:42PM
    Psi4 wall time for execution: 0:00:00.72


    -----------------------------------------------------------------------
          Psi4: An Open-Source Ab Initio Electronic Structure Package
                               Psi4 1.6.1 release

                         Git: Rev {HEAD} 5b9f6e3 


    D. G. A. Smith, L. A. Burns, A. C. Simmonett, R. M. Parrish,
    M. C. Schieber, R. Galvelis, P. Kraus, H. Kruse, R. Di Remigio,
    A. Alenaizan, A. M. James, S. Lehtola, J. P. Misiewicz, M. Scheurer,
    R. A. Shaw, J. B. Schriber, Y. Xie, Z. L. Glick, D. A. Sirianni,
    J. S. O'Brien, J. M. Waldrop, A. Kumar, E. G. Hohenstein,
    B. P. Pritchard, B. R. Brooks, H. F. Schaefer III, A. Yu. Sokolov,
    K. Patkowski, A. E. DePrince III, U. Bozkaya, R. A. King,
    F. A. Evangelista, J. M. Turney, T. D. Crawford, C. D. Sherrill,
    J. Chem. Phys. 152(18) 184108 (2020). https://doi.org/10.1063/5.0006002

                            Additional Code Authors
    E. T. Seidl, C. L. Janssen, E. F. Valeev, M. L. Leininger,
    J. F. Gonthier, R. M. Richard, H. R. McAlexander, M. Saitow, X. Wang,
    P. Verma, M. H. Lechner, and A. Jiang

             Previous Authors, Complete List of Code Contributors,
                       and Citations for Specific Modules
    https://github.com/psi4/psi4/blob/master/codemeta.json
    https://github.com/psi4/psi4/graphs/contributors
    http://psicode.org/psi4manual/master/introduction.html#citing-psifour

    -----------------------------------------------------------------------


    Psi4 started on: Tuesday, 27 September 2022 09:28PM

    Process ID: 68284
    Host:       Liyangs-MBP
    PSIDATADIR: /opt/miniconda3/envs/qm-tools/share/psi4
    Memory:     476.8 MiB
    Threads:    1
    
  ==> Input QCSchema <==

--------------------------------------------------------------------------
{'driver': 'energy',
 'extras': {'psiapi': True, 'wfn_qcvars_only': True},
 'id': None,
 'keywords': {'function_kwargs': {}},
 'model': {'basis': 'aug-cc-pvdz', 'method': 'scf'},
 'molecule': {'atom_labels': ['1', '2', '3', '5', '6', '7'],
              'atomic_numbers': [8, 1, 1, 8, 1, 1],
              'fix_com': True,
              'fix_orientation': True,
              'fragment_charges': [0.0, 0.0],
              'fragment_multiplicities': [1, 1],
              'fragments': [[0, 1, 2], [3, 4, 5]],
              'geometry': [4.9314301649168976e-17, -0.051183389255754747, -3.3050226556771247, 4.9314301649168976e-17,
                           -0.051183389255754747, -1.4152965302192972, 4.9314301649168976e-17, 1.7781852282291912,
                           -3.7788108895950563, 4.9314301649168976e-17, -0.051183389255754747, 3.120046170879491,
                           -1.5807867135447526, -0.47475391255592025, 4.064909233608404, 1.5807867135447509,
                           0.37238713404440865, 4.064909233608405],
              'mass_numbers': [16, 1, 1, 16, 1, 1],
              'masses': [15.99491461957, 1.00782503223, 1.00782503223, 15.99491461957, 1.00782503223, 1.00782503223],
              'molecular_charge': 0.0,
              'molecular_multiplicity': 1,
              'name': 'H4O2',
              'provenance': {'creator': 'QCElemental',
                             'routine': 'qcelemental.molparse.from_string',
                             'version': 'v0.25.0'},
              'real': [True, True, True, False, False, False],
              'schema_name': 'qcschema_molecule',
              'schema_version': 2,
              'symbols': ['O', 'H', 'H', 'O', 'H', 'H'],
              'validated': True},
 'protocols': {'stdout': True},
 'provenance': {'creator': 'QCElemental', 'routine': 'qcelemental.models.results', 'version': 'v0.25.0'},
 'schema_name': 'qcschema_input',
 'schema_version': 1}
--------------------------------------------------------------------------

Scratch directory: /tmp/

*** tstart() called on Liyangs-MBP
*** at Tue Sep 27 21:42:33 2022

   => Loading Basis Set <=

    Name: AUG-CC-PVDZ
    Role: ORBITAL
    Keyword: BASIS
    atoms 1, 4     entry O          line   254 file /opt/miniconda3/envs/qm-tools/share/psi4/basis/aug-cc-pvdz.gbs 
    atoms 2-3, 5-6 entry H          line    40 file /opt/miniconda3/envs/qm-tools/share/psi4/basis/aug-cc-pvdz.gbs 


         ---------------------------------------------------------
                                   SCF
               by Justin Turney, Rob Parrish, Andy Simmonett
                          and Daniel G. A. Smith
                              RHF Reference
                        1 Threads,    476 MiB Core
         ---------------------------------------------------------

  ==> Geometry <==

    Molecular point group: c1
    Full point group: C1

    Geometry (in Bohr), charge = 0, multiplicity = 1:

       Center              X                  Y                   Z               Mass       
    ------------   -----------------  -----------------  -----------------  -----------------
         O            0.000000000000    -0.051183389256    -3.305022655677    15.994914619570
         H            0.000000000000    -0.051183389256    -1.415296530219     1.007825032230
         H            0.000000000000     1.778185228229    -3.778810889595     1.007825032230
      Gh(O)           0.000000000000    -0.051183389256     3.120046170879    15.994914619570
      Gh(H)          -1.580786713545    -0.474753912556     4.064909233608     1.007825032230
      Gh(H)           1.580786713545     0.372387134044     4.064909233608     1.007825032230

  Running in c1 symmetry.

  Rotational constants: A =      7.04251  B =      0.15718  C =      0.15592 [cm^-1]
  Rotational constants: A = 211129.11006  B =   4712.25332  C =   4674.41499 [MHz]
  Nuclear repulsion =    8.801420354575152

  Charge       = 0
  Multiplicity = 1
  Electrons    = 10
  Nalpha       = 5
  Nbeta        = 5

  ==> Algorithm <==

  SCF Algorithm Type is DF.
  DIIS enabled.
  MOM disabled.
  Fractional occupation disabled.
  Guess Type is SAD.
  Energy threshold   = 1.00e-06
  Density threshold  = 1.00e-06
  Integral threshold = 1.00e-12

  ==> Primary Basis <==

  Basis Set: AUG-CC-PVDZ
    Blend: AUG-CC-PVDZ
    Number of shells: 38
    Number of basis functions: 82
    Number of Cartesian functions: 86
    Spherical Harmonics?: true
    Max angular momentum: 2

   => Loading Basis Set <=

    Name: (AUG-CC-PVDZ AUX)
    Role: JKFIT
    Keyword: DF_BASIS_SCF
    atoms 1, 4     entry O          line   270 file /opt/miniconda3/envs/qm-tools/share/psi4/basis/aug-cc-pvdz-jkfit.gbs 
    atoms 2-3, 5-6 entry H          line    70 file /opt/miniconda3/envs/qm-tools/share/psi4/basis/aug-cc-pvdz-jkfit.gbs 

  ==> Integral Setup <==

  DFHelper Memory: AOs need 0.017 GiB; user supplied 0.349 GiB. Using in-core AOs.

  ==> MemDFJK: Density-Fitted J/K Matrices <==

    J tasked:                   Yes
    K tasked:                   Yes
    wK tasked:                   No
    OpenMP threads:               1
    Memory [MiB]:               357
    Algorithm:                 Core
    Schwarz Cutoff:           1E-12
    Mask sparsity (%):       0.0892
    Fitting Condition:        1E-10

   => Auxiliary Basis Set <=

  Basis Set: (AUG-CC-PVDZ AUX)
    Blend: AUG-CC-PVDZ-JKFIT
    Number of shells: 104
    Number of basis functions: 300
    Number of Cartesian functions: 342
    Spherical Harmonics?: true
    Max angular momentum: 3

  Minimum eigenvalue in the overlap matrix is 2.2822452786E-03.
  Reciprocal condition number of the overlap matrix is 3.3346106544E-04.
    Using symmetric orthogonalization.

  ==> Pre-Iterations <==

  SCF Guess: Superposition of Atomic Densities via on-the-fly atomic UHF (no occupation information).

   -------------------------
    Irrep   Nso     Nmo    
   -------------------------
     A         82      82 
   -------------------------
    Total      82      82
   -------------------------

  ==> Iterations <==

                           Total Energy        Delta E     RMS |[F,P]|

   @DF-RHF iter SAD:   -75.41487093606530   -7.54149e+01   0.00000e+00 
   @DF-RHF iter   1:   -75.94940687048606   -5.34536e-01   5.50509e-03 ADIIS/DIIS
   @DF-RHF iter   2:   -76.00128304886215   -5.18762e-02   3.77426e-03 ADIIS/DIIS
   @DF-RHF iter   3:   -76.03523373489726   -3.39507e-02   2.81159e-04 ADIIS/DIIS
   @DF-RHF iter   4:   -76.03568724938799   -4.53514e-04   6.60279e-05 DIIS
   @DF-RHF iter   5:   -76.03571739454269   -3.01452e-05   1.56259e-05 DIIS
   @DF-RHF iter   6:   -76.03571996407175   -2.56953e-06   3.09093e-06 DIIS
   @DF-RHF iter   7:   -76.03572006736387   -1.03292e-07   5.04423e-07 DIIS
  Energy and wave function converged.


  ==> Post-Iterations <==

    Orbital Energies [Eh]
    ---------------------

    Doubly Occupied:                                                      

       1A    -20.584252     2A     -1.335642     3A     -0.696505  
       4A     -0.577382     5A     -0.506086  

    Virtual:                                                              

       6A      0.024580     7A      0.049340     8A      0.057918  
       9A      0.077248    10A      0.134029    11A      0.150343  
      12A      0.181920    13A      0.186649    14A      0.217988  
      15A      0.221236    16A      0.228591    17A      0.263277  
      18A      0.320309    19A      0.359902    20A      0.362897  
      21A      0.379517    22A      0.405610    23A      0.418675  
      24A      0.421660    25A      0.458492    26A      0.487773  
      27A      0.497619    28A      0.519469    29A      0.530255  
      30A      0.556686    31A      0.603947    32A      0.645912  
      33A      0.725884    34A      0.810105    35A      0.899629  
      36A      0.946063    37A      1.025191    38A      1.104242  
      39A      1.140054    40A      1.164834    41A      1.191441  
      42A      1.201616    43A      1.271425    44A      1.295273  
      45A      1.299748    46A      1.329360    47A      1.335917  
      48A      1.416622    49A      1.485309    50A      1.537018  
      51A      1.673079    52A      1.986729    53A      1.990714  
      54A      2.062498    55A      2.082428    56A      2.331526  
      57A      2.359592    58A      2.379087    59A      2.382282  
      60A      2.394683    61A      2.431317    62A      2.621207  
      63A      2.725369    64A      2.810462    65A      2.981666  
      66A      3.379679    67A      3.673952    68A      3.699135  
      69A      3.718392    70A      3.900649    71A      3.929145  
      72A      4.022732    73A      4.246049    74A      4.877166  
      75A      4.943603    76A      5.005562    77A      5.300720  
      78A      5.325716    79A      5.577362    80A      6.273241  
      81A      6.812701    82A     33.527798  

    Final Occupation by Irrep:
              A 
    DOCC [     5 ]

  @DF-RHF Final Energy:   -76.03572006736387

   => Energetics <=

    Nuclear Repulsion Energy =              8.8014203545751517
    One-Electron Energy =                -122.2745249675509740
    Two-Electron Energy =                  37.4373845456119483
    Total Energy =                        -76.0357200673638687

Computation Completed


Properties will be evaluated at   0.000000,   0.000000,   0.000000 [a0]

Properties computed using the SCF density matrix


 Multipole Moments:

 ------------------------------------------------------------------------------------
     Multipole            Electronic (a.u.)      Nuclear  (a.u.)        Total (a.u.)
 ------------------------------------------------------------------------------------

 L = 1.  Multiply by 2.5417464519 to convert [e a0] to [Debye]
 Dipole X            :          0.0000282            0.0000000            0.0000282
 Dipole Y            :         -0.6852958            1.3175347            0.6322389
 Dipole Z            :         32.1235581          -31.6342887            0.4892695
 Magnitude           :                                                    0.7994439

 ------------------------------------------------------------------------------------

*** tstop() called on Liyangs-MBP at Tue Sep 27 21:42:34 2022
Module time:
	user time   =       0.62 seconds =       0.01 minutes
	system time =       0.04 seconds =       0.00 minutes
	total time  =          1 seconds =       0.02 minutes
Total time:
	user time   =     455.90 seconds =       7.60 minutes
	system time =      28.67 seconds =       0.48 minutes
	total time  =        838 seconds =      13.97 minutes

    Psi4 stopped on: Tuesday, 27 September 2022 09:42PM
    Psi4 wall time for execution: 0:00:00.72


    -----------------------------------------------------------------------
          Psi4: An Open-Source Ab Initio Electronic Structure Package
                               Psi4 1.6.1 release

                         Git: Rev {HEAD} 5b9f6e3 


    D. G. A. Smith, L. A. Burns, A. C. Simmonett, R. M. Parrish,
    M. C. Schieber, R. Galvelis, P. Kraus, H. Kruse, R. Di Remigio,
    A. Alenaizan, A. M. James, S. Lehtola, J. P. Misiewicz, M. Scheurer,
    R. A. Shaw, J. B. Schriber, Y. Xie, Z. L. Glick, D. A. Sirianni,
    J. S. O'Brien, J. M. Waldrop, A. Kumar, E. G. Hohenstein,
    B. P. Pritchard, B. R. Brooks, H. F. Schaefer III, A. Yu. Sokolov,
    K. Patkowski, A. E. DePrince III, U. Bozkaya, R. A. King,
    F. A. Evangelista, J. M. Turney, T. D. Crawford, C. D. Sherrill,
    J. Chem. Phys. 152(18) 184108 (2020). https://doi.org/10.1063/5.0006002

                            Additional Code Authors
    E. T. Seidl, C. L. Janssen, E. F. Valeev, M. L. Leininger,
    J. F. Gonthier, R. M. Richard, H. R. McAlexander, M. Saitow, X. Wang,
    P. Verma, M. H. Lechner, and A. Jiang

             Previous Authors, Complete List of Code Contributors,
                       and Citations for Specific Modules
    https://github.com/psi4/psi4/blob/master/codemeta.json
    https://github.com/psi4/psi4/graphs/contributors
    http://psicode.org/psi4manual/master/introduction.html#citing-psifour

    -----------------------------------------------------------------------


    Psi4 started on: Tuesday, 27 September 2022 09:28PM

    Process ID: 68284
    Host:       Liyangs-MBP
    PSIDATADIR: /opt/miniconda3/envs/qm-tools/share/psi4
    Memory:     476.8 MiB
    Threads:    1
    
  ==> Input QCSchema <==

--------------------------------------------------------------------------
{'driver': 'energy',
 'extras': {'psiapi': True, 'wfn_qcvars_only': True},
 'id': None,
 'keywords': {'function_kwargs': {}},
 'model': {'basis': 'aug-cc-pvdz', 'method': 'scf'},
 'molecule': {'atom_labels': ['1', '2', '3', '5', '6', '7'],
              'atomic_numbers': [8, 1, 1, 8, 1, 1],
              'fix_com': True,
              'fix_orientation': True,
              'fragment_charges': [0.0, 0.0],
              'fragment_multiplicities': [1, 1],
              'fragments': [[0, 1, 2], [3, 4, 5]],
              'geometry': [4.9314301649168976e-17, -0.051183389255754747, -3.3050226556771247, 4.9314301649168976e-17,
                           -0.051183389255754747, -1.4152965302192972, 4.9314301649168976e-17, 1.7781852282291912,
                           -3.7788108895950563, 4.9314301649168976e-17, -0.051183389255754747, 3.120046170879491,
                           -1.5807867135447526, -0.47475391255592025, 4.064909233608404, 1.5807867135447509,
                           0.37238713404440865, 4.064909233608405],
              'mass_numbers': [16, 1, 1, 16, 1, 1],
              'masses': [15.99491461957, 1.00782503223, 1.00782503223, 15.99491461957, 1.00782503223, 1.00782503223],
              'molecular_charge': 0.0,
              'molecular_multiplicity': 1,
              'name': 'H4O2',
              'provenance': {'creator': 'QCElemental',
                             'routine': 'qcelemental.molparse.from_string',
                             'version': 'v0.25.0'},
              'real': [True, True, True, True, True, True],
              'schema_name': 'qcschema_molecule',
              'schema_version': 2,
              'symbols': ['O', 'H', 'H', 'O', 'H', 'H'],
              'validated': True},
 'protocols': {'stdout': True},
 'provenance': {'creator': 'QCElemental', 'routine': 'qcelemental.models.results', 'version': 'v0.25.0'},
 'schema_name': 'qcschema_input',
 'schema_version': 1}
--------------------------------------------------------------------------

Scratch directory: /tmp/

*** tstart() called on Liyangs-MBP
*** at Tue Sep 27 21:42:34 2022

   => Loading Basis Set <=

    Name: AUG-CC-PVDZ
    Role: ORBITAL
    Keyword: BASIS
    atoms 1, 4     entry O          line   254 file /opt/miniconda3/envs/qm-tools/share/psi4/basis/aug-cc-pvdz.gbs 
    atoms 2-3, 5-6 entry H          line    40 file /opt/miniconda3/envs/qm-tools/share/psi4/basis/aug-cc-pvdz.gbs 


         ---------------------------------------------------------
                                   SCF
               by Justin Turney, Rob Parrish, Andy Simmonett
                          and Daniel G. A. Smith
                              RHF Reference
                        1 Threads,    476 MiB Core
         ---------------------------------------------------------

  ==> Geometry <==

    Molecular point group: c1
    Full point group: C1

    Geometry (in Bohr), charge = 0, multiplicity = 1:

       Center              X                  Y                   Z               Mass       
    ------------   -----------------  -----------------  -----------------  -----------------
         O            0.000000000000    -0.051183389256    -3.305022655677    15.994914619570
         H            0.000000000000    -0.051183389256    -1.415296530219     1.007825032230
         H            0.000000000000     1.778185228229    -3.778810889595     1.007825032230
         O            0.000000000000    -0.051183389256     3.120046170879    15.994914619570
         H           -1.580786713545    -0.474753912556     4.064909233608     1.007825032230
         H            1.580786713545     0.372387134044     4.064909233608     1.007825032230

  Running in c1 symmetry.

  Rotational constants: A =      7.04251  B =      0.15718  C =      0.15592 [cm^-1]
  Rotational constants: A = 211129.11006  B =   4712.25332  C =   4674.41499 [MHz]
  Nuclear repulsion =   33.131999890048917

  Charge       = 0
  Multiplicity = 1
  Electrons    = 20
  Nalpha       = 10
  Nbeta        = 10

  ==> Algorithm <==

  SCF Algorithm Type is DF.
  DIIS enabled.
  MOM disabled.
  Fractional occupation disabled.
  Guess Type is SAD.
  Energy threshold   = 1.00e-06
  Density threshold  = 1.00e-06
  Integral threshold = 1.00e-12

  ==> Primary Basis <==

  Basis Set: AUG-CC-PVDZ
    Blend: AUG-CC-PVDZ
    Number of shells: 38
    Number of basis functions: 82
    Number of Cartesian functions: 86
    Spherical Harmonics?: true
    Max angular momentum: 2

   => Loading Basis Set <=

    Name: (AUG-CC-PVDZ AUX)
    Role: JKFIT
    Keyword: DF_BASIS_SCF
    atoms 1, 4     entry O          line   270 file /opt/miniconda3/envs/qm-tools/share/psi4/basis/aug-cc-pvdz-jkfit.gbs 
    atoms 2-3, 5-6 entry H          line    70 file /opt/miniconda3/envs/qm-tools/share/psi4/basis/aug-cc-pvdz-jkfit.gbs 

  ==> Integral Setup <==

  DFHelper Memory: AOs need 0.017 GiB; user supplied 0.349 GiB. Using in-core AOs.

  ==> MemDFJK: Density-Fitted J/K Matrices <==

    J tasked:                   Yes
    K tasked:                   Yes
    wK tasked:                   No
    OpenMP threads:               1
    Memory [MiB]:               357
    Algorithm:                 Core
    Schwarz Cutoff:           1E-12
    Mask sparsity (%):       0.0892
    Fitting Condition:        1E-10

   => Auxiliary Basis Set <=

  Basis Set: (AUG-CC-PVDZ AUX)
    Blend: AUG-CC-PVDZ-JKFIT
    Number of shells: 104
    Number of basis functions: 300
    Number of Cartesian functions: 342
    Spherical Harmonics?: true
    Max angular momentum: 3

  Minimum eigenvalue in the overlap matrix is 2.2822452786E-03.
  Reciprocal condition number of the overlap matrix is 3.3346106544E-04.
    Using symmetric orthogonalization.

  ==> Pre-Iterations <==

  SCF Guess: Superposition of Atomic Densities via on-the-fly atomic UHF (no occupation information).

   -------------------------
    Irrep   Nso     Nmo    
   -------------------------
     A         82      82 
   -------------------------
    Total      82      82
   -------------------------

  ==> Iterations <==

                           Total Energy        Delta E     RMS |[F,P]|

   @DF-RHF iter SAD:  -150.84513205645007   -1.50845e+02   0.00000e+00 
   @DF-RHF iter   1:  -151.90838784395606   -1.06326e+00   7.61984e-03 ADIIS/DIIS
   @DF-RHF iter   2:  -152.00872447034899   -1.00337e-01   5.08525e-03 ADIIS/DIIS
   @DF-RHF iter   3:  -152.07006207192040   -6.13376e-02   4.06418e-04 ADIIS/DIIS
   @DF-RHF iter   4:  -152.07099907715804   -9.37005e-04   8.98598e-05 DIIS
   @DF-RHF iter   5:  -152.07105605856833   -5.69814e-05   2.44874e-05 DIIS
   @DF-RHF iter   6:  -152.07106130135662   -5.24279e-06   1.05730e-05 DIIS
   @DF-RHF iter   7:  -152.07106183251929   -5.31163e-07   2.70916e-06 DIIS
   @DF-RHF iter   8:  -152.07106190145004   -6.89307e-08   4.42835e-07 DIIS
  Energy and wave function converged.


  ==> Post-Iterations <==

    Orbital Energies [Eh]
    ---------------------

    Doubly Occupied:                                                      

       1A    -20.594130     2A    -20.560711     3A     -1.344942  
       4A     -1.313142     5A     -0.739508     6A     -0.675146  
       7A     -0.574084     8A     -0.551575     9A     -0.519851  
      10A     -0.483978  

    Virtual:                                                              

      11A      0.026956    12A      0.051561    13A      0.054832  
      14A      0.087423    15A      0.174986    16A      0.185288  
      17A      0.200273    18A      0.208978    19A      0.224781  
      20A      0.235137    21A      0.245270    22A      0.275714  
      23A      0.295350    24A      0.306577    25A      0.340096  
      26A      0.362101    27A      0.391277    28A      0.420840  
      29A      0.430928    30A      0.481977    31A      0.498915  
      32A      0.527017    33A      0.542540    34A      0.580621  
      35A      0.628173    36A      0.641609    37A      0.661875  
      38A      0.768237    39A      0.831950    40A      0.856052  
      41A      0.888915    42A      0.964293    43A      1.088001  
      44A      1.129142    45A      1.129840    46A      1.179769  
      47A      1.197214    48A      1.215473    49A      1.339570  
      50A      1.419955    51A      1.452528    52A      1.483924  
      53A      1.501807    54A      1.590996    55A      1.603930  
      56A      1.851324    57A      1.952560    58A      2.011089  
      59A      2.014342    60A      2.033539    61A      2.038113  
      62A      2.107163    63A      2.367684    64A      2.397225  
      65A      2.410903    66A      2.461168    67A      2.516302  
      68A      2.685564    69A      2.735872    70A      2.761965  
      71A      2.901165    72A      3.004981    73A      3.653901  
      74A      3.682158    75A      3.697140    76A      3.729725  
      77A      3.738083    78A      3.748789    79A      4.042922  
      80A      4.122346    81A      4.161848    82A      4.277992  

    Final Occupation by Irrep:
              A 
    DOCC [    10 ]

  @DF-RHF Final Energy:  -152.07106190145004

   => Energetics <=

    Nuclear Repulsion Energy =             33.1319998900489168
    One-Electron Energy =                -275.6919627246893469
    Two-Electron Energy =                  90.4889009331903935
    Total Energy =                       -152.0710619014500367

Computation Completed


Properties will be evaluated at   0.000000,   0.000000,   0.000000 [a0]

Properties computed using the SCF density matrix


 Multipole Moments:

 ------------------------------------------------------------------------------------
     Multipole            Electronic (a.u.)      Nuclear  (a.u.)        Total (a.u.)
 ------------------------------------------------------------------------------------

 L = 1.  Multiply by 2.5417464519 to convert [e a0] to [Debye]
 Dipole X            :         -0.0005418           -0.0000000           -0.0005418
 Dipole Y            :         -0.1902050            0.8057008            0.6154959
 Dipole Z            :         -0.1319356            1.4558992            1.3239635
 Magnitude           :                                                    1.4600393

 ------------------------------------------------------------------------------------

*** tstop() called on Liyangs-MBP at Tue Sep 27 21:42:35 2022
Module time:
	user time   =       0.64 seconds =       0.01 minutes
	system time =       0.04 seconds =       0.00 minutes
	total time  =          1 seconds =       0.02 minutes
Total time:
	user time   =     456.61 seconds =       7.61 minutes
	system time =      28.72 seconds =       0.48 minutes
	total time  =        839 seconds =      13.98 minutes

    Psi4 stopped on: Tuesday, 27 September 2022 09:42PM
    Psi4 wall time for execution: 0:00:00.75


  //>>>>>>>>>>>>>>>>>>>>>>>>>>>>>>>>>>>//
  //          ManyBody Results         //
  //<<<<<<<<<<<<<<<<<<<<<<<<<<<<<<<<<<<//


   ==> N-Body: Counterpoise Corrected (CP) energies <==

        n-Body     Total Energy            Interaction Energy                          N-body Contribution to Interaction Energy
                   [Eh]                    [Eh]                  [kcal/mol]            [Eh]                  [kcal/mol]
             1  N/A                         0.000000000000        0.000000000000        0.000000000000        0.000000000000
  FULL/RTN   2  N/A                        -0.005502742460       -3.453023025200       -0.005502742460       -3.453023025200

